# vtk DataFile Version 3.0
Para0
ASCII
DATASET RECTILINEAR_GRID
DIMENSIONS 160 80 1
X_COORDINATES 160 int
0 1 2 3 4 5 6 7 8 9 10 11 12 13 14 15 16 17 18 19 20 21 22 23 24 25 26 27 28 29 30 31 32 33 34 35 36 37 38 39 40 41 42 43 44 45 46 47 48 49 50 51 52 53 54 55 56 57 58 59 60 61 62 63 64 65 66 67 68 69 70 71 72 73 74 75 76 77 78 79 80 81 82 83 84 85 86 87 88 89 90 91 92 93 94 95 96 97 98 99 100 101 102 103 104 105 106 107 108 109 110 111 112 113 114 115 116 117 118 119 120 121 122 123 124 125 126 127 128 129 130 131 132 133 134 135 136 137 138 139 140 141 142 143 144 145 146 147 148 149 150 151 152 153 154 155 156 157 158 159 
Y_COORDINATES 80 int
0 1 2 3 4 5 6 7 8 9 10 11 12 13 14 15 16 17 18 19 20 21 22 23 24 25 26 27 28 29 30 31 32 33 34 35 36 37 38 39 40 41 42 43 44 45 46 47 48 49 50 51 52 53 54 55 56 57 58 59 60 61 62 63 64 65 66 67 68 69 70 71 72 73 74 75 76 77 78 79 
Z_COORDINATES 1 int
0

POINT_DATA 12800
SCALARS distance float 1
LOOKUP_TABLE default
0.000000
0.000000
0.000000
0.000000
0.000000
0.000000
0.000000
0.000000
0.000000
0.000000
0.000000
0.000000
0.000000
0.000000
0.000000
0.000000
0.000000
0.000000
0.000000
0.000000
0.000000
0.000000
0.000000
0.000000
0.000000
0.000000
0.000000
0.000000
0.000000
0.000000
0.000000
0.000000
0.000000
0.000000
0.000000
0.000000
0.000000
0.000000
0.000000
0.000000
0.000000
0.000000
0.000000
0.000000
0.000000
0.000000
0.000000
0.000000
0.000000
0.000000
0.000000
0.000000
0.000000
0.000000
0.000000
0.000000
0.000000
0.000000
0.000000
0.000000
0.000000
0.000000
0.000000
0.000000
0.000000
0.000000
0.000000
0.000000
0.000000
0.000000
0.000000
0.000000
0.000000
0.000000
0.000000
0.000000
0.000000
0.000000
0.000000
0.000000
0.000000
0.000000
0.000000
0.000000
0.000000
0.000000
0.000000
0.000000
0.000000
0.000000
0.000000
0.000000
0.000000
0.000000
0.000000
0.000000
0.000000
0.000000
0.000000
0.000000
0.000000
0.000000
0.000000
0.000000
0.000000
0.000000
0.000000
0.000000
0.000000
0.000000
0.000000
0.000000
0.000000
0.000000
0.000000
0.000000
0.000000
0.000000
0.000000
0.000000
0.000000
0.000000
0.000000
0.000000
0.000000
0.000000
0.000000
0.000000
0.000000
0.000000
0.000000
0.000000
0.000000
0.000000
0.000000
0.000000
0.000000
0.000000
0.000000
0.000000
0.000000
0.000000
0.000000
0.000000
0.000000
0.000000
0.000000
0.000000
0.000000
0.000000
0.000000
0.000000
0.000000
0.000000
0.000000
0.000000
0.000000
0.000000
0.000000
0.000000
0.000000
1.000000
1.000000
1.000000
1.000000
1.000000
1.000000
1.000000
1.000000
1.000000
1.000000
1.000000
1.000000
1.000000
1.000000
1.000000
1.000000
1.000000
1.000000
1.000000
1.000000
1.000000
1.000000
1.000000
1.000000
1.000000
1.000000
1.000000
1.000000
1.000000
1.000000
1.000000
1.000000
1.000000
1.000000
1.000000
1.000000
1.000000
1.000000
1.000000
1.000000
1.000000
1.000000
1.000000
1.000000
1.000000
1.000000
1.000000
1.000000
1.000000
1.000000
1.000000
1.000000
1.000000
1.000000
1.000000
1.000000
1.000000
1.000000
1.000000
1.000000
1.000000
1.000000
1.000000
1.000000
1.000000
1.000000
1.000000
1.000000
1.000000
1.000000
1.000000
1.000000
1.000000
1.000000
1.000000
1.000000
1.000000
1.000000
1.000000
1.000000
1.000000
1.000000
1.000000
1.000000
1.000000
1.000000
1.000000
1.000000
1.000000
1.000000
1.000000
1.000000
1.000000
1.000000
1.000000
1.000000
1.000000
1.000000
1.000000
1.000000
1.000000
1.000000
1.000000
1.000000
1.000000
1.000000
1.000000
1.000000
1.000000
1.000000
1.000000
1.000000
1.000000
1.000000
1.000000
1.000000
1.000000
1.000000
1.000000
1.000000
1.000000
1.000000
1.000000
1.000000
1.000000
1.000000
1.000000
1.000000
1.000000
1.000000
1.000000
1.000000
1.000000
1.000000
1.000000
1.000000
1.000000
1.000000
1.000000
1.000000
1.000000
1.000000
1.000000
1.000000
1.000000
1.000000
1.000000
1.000000
1.000000
1.000000
1.000000
1.000000
1.000000
1.000000
1.000000
1.000000
1.000000
1.000000
0.000000
0.000000
1.000000
2.000000
2.000000
2.000000
2.000000
2.000000
2.000000
2.000000
2.000000
2.000000
2.000000
2.000000
2.000000
2.000000
2.000000
2.000000
2.000000
2.000000
2.000000
2.000000
2.000000
2.000000
2.000000
2.000000
2.000000
2.000000
2.000000
2.000000
2.000000
2.000000
2.000000
2.000000
2.000000
2.000000
2.000000
2.000000
2.000000
2.000000
2.000000
2.000000
2.000000
2.000000
2.000000
2.000000
2.000000
2.000000
2.000000
2.000000
2.000000
2.000000
2.000000
2.000000
2.000000
2.000000
2.000000
2.000000
2.000000
2.000000
2.000000
2.000000
2.000000
2.000000
2.000000
2.000000
2.000000
2.000000
2.000000
2.000000
2.000000
2.000000
2.000000
2.000000
2.000000
2.000000
2.000000
2.000000
2.000000
2.000000
2.000000
2.000000
2.000000
2.000000
2.000000
2.000000
2.000000
2.000000
2.000000
2.000000
2.000000
2.000000
2.000000
2.000000
2.000000
2.000000
2.000000
2.000000
2.000000
2.000000
2.000000
2.000000
2.000000
2.000000
2.000000
2.000000
2.000000
2.000000
2.000000
2.000000
2.000000
2.000000
2.000000
2.000000
2.000000
2.000000
2.000000
2.000000
2.000000
2.000000
2.000000
2.000000
2.000000
2.000000
2.000000
2.000000
2.000000
2.000000
2.000000
2.000000
2.000000
2.000000
2.000000
2.000000
2.000000
2.000000
2.000000
2.000000
2.000000
2.000000
2.000000
2.000000
2.000000
2.000000
2.000000
2.000000
2.000000
2.000000
2.000000
2.000000
2.000000
2.000000
2.000000
2.000000
2.000000
2.000000
2.000000
2.000000
2.000000
1.000000
0.000000
0.000000
1.000000
2.000000
3.000000
3.000000
3.000000
3.000000
3.000000
3.000000
3.000000
3.000000
3.000000
3.000000
3.000000
3.000000
3.000000
3.000000
3.000000
3.000000
3.000000
3.000000
3.000000
3.000000
3.000000
3.000000
3.000000
3.000000
3.000000
3.000000
3.000000
3.000000
3.000000
3.000000
3.000000
3.000000
3.000000
3.000000
3.000000
3.000000
3.000000
3.000000
3.000000
3.000000
3.000000
3.000000
3.000000
3.000000
3.000000
3.000000
3.000000
3.000000
3.000000
3.000000
3.000000
3.000000
3.000000
3.000000
3.000000
3.000000
3.000000
3.000000
3.000000
3.000000
3.000000
3.000000
3.000000
3.000000
3.000000
3.000000
3.000000
3.000000
3.000000
3.000000
3.000000
3.000000
3.000000
3.000000
3.000000
3.000000
3.000000
3.000000
3.000000
3.000000
3.000000
3.000000
3.000000
3.000000
3.000000
3.000000
3.000000
3.000000
3.000000
3.000000
3.000000
3.000000
3.000000
3.000000
3.000000
3.000000
3.000000
3.000000
3.000000
3.000000
3.000000
3.000000
3.000000
3.000000
3.000000
3.000000
3.000000
3.000000
3.000000
3.000000
3.000000
3.000000
3.000000
3.000000
3.000000
3.000000
3.000000
3.000000
3.000000
3.000000
3.000000
3.000000
3.000000
3.000000
3.000000
3.000000
3.000000
3.000000
3.000000
3.000000
3.000000
3.000000
3.000000
3.000000
3.000000
3.000000
3.000000
3.000000
3.000000
3.000000
3.000000
3.000000
3.000000
3.000000
3.000000
3.000000
3.000000
3.000000
3.000000
3.000000
3.000000
3.000000
3.000000
3.000000
2.000000
1.000000
0.000000
0.000000
1.000000
2.000000
3.000000
4.000000
4.000000
4.000000
4.000000
4.000000
4.000000
4.000000
4.000000
4.000000
4.000000
4.000000
4.000000
4.000000
4.000000
4.000000
4.000000
4.000000
4.000000
4.000000
4.000000
4.000000
4.000000
4.000000
4.000000
4.000000
4.000000
4.000000
4.000000
4.000000
4.000000
4.000000
4.000000
4.000000
4.000000
4.000000
4.000000
4.000000
4.000000
4.000000
4.000000
4.000000
4.000000
4.000000
4.000000
4.000000
4.000000
4.000000
4.000000
4.000000
4.000000
4.000000
4.000000
4.000000
4.000000
4.000000
4.000000
4.000000
4.000000
4.000000
4.000000
4.000000
4.000000
4.000000
4.000000
4.000000
4.000000
4.000000
4.000000
4.000000
4.000000
4.000000
4.000000
4.000000
4.000000
4.000000
4.000000
4.000000
4.000000
4.000000
4.000000
4.000000
4.000000
4.000000
4.000000
4.000000
4.000000
4.000000
4.000000
4.000000
4.000000
4.000000
4.000000
4.000000
4.000000
4.000000
4.000000
4.000000
4.000000
4.000000
4.000000
4.000000
4.000000
4.000000
4.000000
4.000000
4.000000
4.000000
4.000000
4.000000
4.000000
4.000000
4.000000
4.000000
4.000000
4.000000
4.000000
4.000000
4.000000
4.000000
4.000000
4.000000
4.000000
4.000000
4.000000
4.000000
4.000000
4.000000
4.000000
4.000000
4.000000
4.000000
4.000000
4.000000
4.000000
4.000000
4.000000
4.000000
4.000000
4.000000
4.000000
4.000000
4.000000
4.000000
4.000000
4.000000
4.000000
4.000000
4.000000
4.000000
4.000000
4.000000
4.000000
3.000000
2.000000
1.000000
0.000000
0.000000
1.000000
2.000000
3.000000
4.000000
5.000000
5.000000
5.000000
5.000000
5.000000
5.000000
4.523888
4.050107
3.666282
3.384775
3.216109
3.167279
3.240415
3.432345
3.735242
4.138077
4.628315
5.000000
5.000000
5.000000
5.000000
5.000000
5.000000
5.000000
5.000000
5.000000
5.000000
5.000000
5.000000
5.000000
5.000000
5.000000
5.000000
5.000000
5.000000
5.000000
5.000000
4.959139
4.422550
3.965737
3.601421
3.341729
3.196612
3.172175
3.269489
3.484365
3.808203
4.229542
4.735730
5.000000
5.000000
5.000000
5.000000
5.000000
5.000000
5.000000
5.000000
5.000000
5.000000
5.000000
5.000000
5.000000
5.000000
5.000000
5.000000
5.000000
5.000000
5.000000
5.000000
4.846037
4.324400
3.885069
3.540752
3.303279
3.181958
3.181958
3.303279
3.540752
3.885069
4.324400
4.846037
5.000000
5.000000
5.000000
5.000000
5.000000
5.000000
5.000000
5.000000
5.000000
5.000000
5.000000
5.000000
5.000000
5.000000
5.000000
5.000000
5.000000
5.000000
5.000000
5.000000
4.735730
4.229542
3.808203
3.484365
3.269489
3.172175
3.196612
3.341729
3.601421
3.965737
4.422550
4.959139
5.000000
5.000000
5.000000
5.000000
5.000000
5.000000
5.000000
5.000000
5.000000
5.000000
5.000000
5.000000
5.000000
5.000000
5.000000
5.000000
5.000000
5.000000
5.000000
5.000000
4.628315
4.138077
3.735242
3.432345
3.240415
3.167279
3.216109
3.384775
3.666282
4.050107
4.523888
5.000000
5.000000
5.000000
5.000000
5.000000
5.000000
4.000000
3.000000
2.000000
1.000000
0.000000
0.000000
1.000000
2.000000
3.000000
4.000000
5.000000
6.000000
6.000000
5.666354
4.948423
4.282840
3.681654
3.159112
2.731178
2.414251
2.222957
2.167364
2.250594
2.468006
2.808400
3.256580
3.796085
4.411223
5.088167
5.815318
6.000000
6.000000
6.000000
6.000000
6.000000
6.000000
6.000000
6.000000
6.000000
6.000000
6.000000
6.000000
6.000000
6.000000
6.000000
5.519083
4.810765
4.157025
3.570362
3.065427
2.658401
2.365535
2.200772
2.172943
2.283619
2.526693
2.889937
3.357698
3.913535
4.542071
5.229913
5.965907
6.000000
6.000000
6.000000
6.000000
6.000000
6.000000
6.000000
6.000000
6.000000
6.000000
6.000000
6.000000
6.000000
6.000000
6.000000
5.373578
4.675284
4.033887
3.462335
2.975657
2.590198
2.321961
2.184087
2.184087
2.321961
2.590198
2.975657
3.462335
4.033887
4.675284
5.373578
6.000000
6.000000
6.000000
6.000000
6.000000
6.000000
6.000000
6.000000
6.000000
6.000000
6.000000
6.000000
6.000000
6.000000
6.000000
5.965907
5.229913
4.542071
3.913535
3.357698
2.889937
2.526693
2.283619
2.172943
2.200772
2.365535
2.658401
3.065427
3.570362
4.157025
4.810765
5.519083
6.000000
6.000000
6.000000
6.000000
6.000000
6.000000
6.000000
6.000000
6.000000
6.000000
6.000000
6.000000
6.000000
6.000000
6.000000
5.815318
5.088167
4.411223
3.796085
3.256580
2.808400
2.468006
2.250594
2.167364
2.222957
2.414251
2.731178
3.159112
3.681654
4.282840
4.948423
5.666354
6.000000
6.000000
5.000000
4.000000
3.000000
2.000000
1.000000
0.000000
0.000000
1.000000
2.000000
3.000000
4.000000
5.000000
6.000000
5.827640
5.021865
4.254068
3.534505
2.876406
2.296422
1.814527
1.452734
1.231996
1.167477
1.264007
1.514428
1.902013
2.405253
3.002361
3.673971
4.404136
5.180264
5.992624
6.833756
7.000000
7.000000
7.000000
7.000000
7.000000
7.000000
7.000000
7.000000
7.000000
7.000000
7.000000
6.494250
5.663854
4.864977
4.105920
3.397486
2.753565
2.191507
1.731848
1.396701
1.206269
1.173960
1.302204
1.581624
1.994125
2.517831
3.131284
3.815769
4.556034
5.340105
6.158753
7.000000
7.000000
7.000000
7.000000
7.000000
7.000000
7.000000
7.000000
7.000000
7.000000
7.000000
7.000000
6.325978
5.501323
4.709674
3.959787
3.263037
2.633988
2.090682
1.654155
1.346478
1.186904
1.186904
1.346478
1.654155
2.090682
2.633988
3.263037
3.959787
4.709674
5.501323
6.325978
7.000000
7.000000
7.000000
7.000000
7.000000
7.000000
7.000000
7.000000
7.000000
7.000000
7.000000
7.000000
6.158753
5.340105
4.556034
3.815769
3.131284
2.517831
1.994125
1.581624
1.302204
1.173960
1.206269
1.396701
1.731848
2.191507
2.753565
3.397486
4.105920
4.864977
5.663854
6.494250
7.000000
7.000000
7.000000
7.000000
7.000000
7.000000
7.000000
7.000000
7.000000
7.000000
7.000000
6.833756
5.992624
5.180264
4.404136
3.673971
3.002361
2.405253
1.902013
1.514428
1.264007
1.167477
1.231996
1.452734
1.814527
2.296422
2.876406
3.534505
4.254068
5.021865
5.827640
6.000000
5.000000
4.000000
3.000000
2.000000
1.000000
0.000000
0.000000
1.000000
2.000000
3.000000
4.000000
5.000000
6.000000
5.290989
4.439515
3.620003
2.842477
2.120705
1.473364
0.924900
0.504947
0.244468
0.167634
0.282466
0.577136
1.025317
1.595790
2.259783
2.994026
3.780914
4.607520
5.464437
6.344798
7.243547
8.000000
8.000000
8.000000
8.000000
8.000000
8.000000
8.000000
8.000000
7.790013
6.882106
5.990198
5.118520
4.272780
3.460759
2.693143
1.984586
1.354876
0.829618
0.439158
0.213870
0.175369
0.327705
0.655479
1.130615
1.721938
2.401651
3.147665
3.943402
4.776730
5.638818
6.523213
7.425154
8.000000
8.000000
8.000000
8.000000
8.000000
8.000000
8.000000
8.000000
7.607317
6.702326
5.814085
4.947082
4.107384
3.303279
2.546154
1.851602
1.240548
0.739725
0.380004
0.190804
0.190804
0.380004
0.739725
1.240548
1.851602
2.546154
3.303279
4.107384
4.947082
5.814085
6.702326
7.607317
8.000000
8.000000
8.000000
8.000000
8.000000
8.000000
8.000000
8.000000
7.425154
6.523213
5.638818
4.776730
3.943402
3.147665
2.401651
1.721938
1.130615
0.655479
0.327705
0.175369
0.213870
0.439158
0.829618
1.354876
1.984586
2.693143
3.460759
4.272780
5.118520
5.990198
6.882106
7.790013
8.000000
8.000000
8.000000
8.000000
8.000000
8.000000
8.000000
8.000000
7.243547
6.344798
5.464437
4.607520
3.780914
2.994026
2.259783
1.595790
1.025317
0.577136
0.282466
0.167634
0.244468
0.504947
0.924900
1.473364
2.120705
2.842477
3.620003
4.439515
5.290989
6.000000
5.000000
4.000000
3.000000
2.000000
1.000000
0.000000
0.000000
1.000000
2.000000
3.000000
4.000000
5.000000
5.741095
4.827060
3.931467
3.060466
2.222957
1.432038
0.707111
0.076525
-0.420577
-0.737241
-0.832134
-0.690579
-0.334048
0.193372
0.845606
1.585675
2.387226
3.232321
4.108848
5.008552
5.925709
6.856269
7.797309
8.746676
9.000000
9.000000
9.000000
9.000000
9.000000
8.366043
7.419787
6.482644
5.557041
4.646300
3.755062
2.889937
2.060532
1.281012
0.572352
-0.035011
-0.499877
-0.774942
-0.822547
-0.635242
-0.240682
0.315177
0.987580
1.741744
2.553219
3.405422
4.287148
5.190737
6.110856
7.043717
7.986574
8.937400
9.000000
9.000000
9.000000
9.000000
9.000000
8.176157
7.231562
6.296509
5.373578
4.466315
3.579692
2.720823
1.900081
1.132790
0.441609
-0.140873
-0.571557
-0.803441
-0.803441
-0.571557
-0.140873
0.441609
1.132790
1.900081
2.720823
3.579692
4.466315
5.373578
6.296509
7.231562
8.176157
9.000000
9.000000
9.000000
9.000000
9.000000
8.937400
7.986574
7.043717
6.110856
5.190737
4.287148
3.405422
2.553219
1.741744
0.987580
0.315177
-0.240682
-0.635242
-0.822547
-0.774942
-0.499877
-0.035011
0.572352
1.281012
2.060532
2.889937
3.755062
4.646300
5.557041
6.482644
7.419787
8.366043
9.000000
9.000000
9.000000
9.000000
9.000000
8.746676
7.797309
6.856269
5.925709
5.008552
4.108848
3.232321
2.387226
1.585675
0.845606
0.193372
-0.334048
-0.690579
-0.832134
-0.737241
-0.420577
0.076525
0.707111
1.432038
2.222957
3.060466
3.931467
4.827060
5.741095
5.000000
4.000000
3.000000
2.000000
1.000000
0.000000
0.000000
1.000000
2.000000
3.000000
4.000000
5.000000
5.394122
4.446575
3.511039
2.591955
1.696102
0.834190
0.023722
-0.706077
-1.307064
-1.707922
-1.831755
-1.647721
-1.200292
-0.568547
0.180519
1.003147
1.872974
2.774174
3.696998
4.635236
5.584790
6.542867
7.507509
8.477306
9.451221
10.000000
10.000000
10.000000
9.061215
8.088842
7.120964
6.158753
5.203812
4.258390
3.325730
2.410653
1.520566
0.667255
-0.129910
-0.838537
-1.405869
-1.756888
-1.819155
-1.576876
-1.086207
-0.426404
0.340204
1.173960
2.051083
2.957247
3.883568
4.824346
5.775796
6.735322
7.701094
8.671788
9.646425
10.000000
10.000000
9.841758
8.866426
7.894874
6.928025
5.967123
5.013879
4.070710
3.141116
2.230337
1.346478
0.502525
-0.280066
-0.965427
-1.496034
-1.794103
-1.794103
-1.496034
-0.965427
-0.280066
0.502525
1.346478
2.230337
3.141116
4.070710
5.013879
5.967123
6.928025
7.894874
8.866426
9.841758
10.000000
10.000000
9.646425
8.671788
7.701094
6.735322
5.775796
4.824346
3.883568
2.957247
2.051083
1.173960
0.340204
-0.426404
-1.086207
-1.576876
-1.819155
-1.756888
-1.405869
-0.838537
-0.129910
0.667255
1.520566
2.410653
3.325730
4.258390
5.203812
6.158753
7.120964
8.088842
9.061215
10.000000
10.000000
10.000000
9.451221
8.477306
7.507509
6.542867
5.584790
4.635236
3.696998
2.774174
1.872974
1.003147
0.180519
-0.568547
-1.200292
-1.647721
-1.831755
-1.707922
-1.307064
-0.706077
0.023722
0.834190
1.696102
2.591955
3.511039
4.446575
5.394122
5.000000
4.000000
3.000000
2.000000
1.000000
0.000000
0.000000
1.000000
2.000000
3.000000
4.000000
5.000000
5.134320
4.159937
3.191730
2.232181
1.285256
0.357653
-0.538560
-1.379994
-2.118257
-2.653845
-2.831027
-2.570094
-1.982643
-1.217878
-0.362712
0.541159
1.473364
2.423237
3.384775
4.354381
5.329784
6.309485
7.292455
8.277968
9.265498
10.254653
10.334638
9.858817
8.870272
7.883495
6.898926
5.917163
4.939036
3.965737
2.999028
2.041622
1.097905
0.175369
-0.712291
-1.538144
-2.246013
-2.723062
-2.812663
-2.473254
-1.840183
-1.052286
-0.184977
0.725770
1.662165
2.614752
3.578138
4.549055
5.525419
6.505844
7.489373
8.475327
9.463210
10.345068
10.338550
9.660984
8.672763
7.686388
6.702326
5.721215
4.743944
3.771798
2.806692
1.851602
0.911383
-0.005559
-0.883637
-1.691761
-2.364769
-2.776389
-2.776389
-2.364769
-1.691761
-0.883637
-0.005559
0.911383
1.851602
2.806692
3.771798
4.743944
5.721215
6.702326
7.686388
8.672763
9.660984
10.338550
10.345068
9.463210
8.475327
7.489373
6.505844
5.525419
4.549055
3.578138
2.614752
1.662165
0.725770
-0.184977
-1.052286
-1.840183
-2.473254
-2.812663
-2.723062
-2.246013
-1.538144
-0.712291
0.175369
1.097905
2.041622
2.999028
3.965737
4.939036
5.917163
6.898926
7.883495
8.870272
9.858817
10.334638
10.254653
9.265498
8.277968
7.292455
6.309485
5.329784
4.354381
3.384775
2.423237
1.473364
0.541159
-0.362712
-1.217878
-1.982643
-2.570094
-2.831027
-2.653845
-2.118257
-1.379994
-0.538560
0.357653
1.285256
2.232181
3.191730
4.159937
5.134320
5.000000
4.000000
3.000000
2.000000
1.000000
0.000000
0.000000
1.000000
2.000000
3.000000
4.000000
5.000000
4.968506
3.976141
2.985682
1.997936
1.014242
0.036974
-0.929237
-1.874122
-2.770401
-3.526531
-3.829055
-3.396532
-2.597686
-1.687733
-0.737241
0.231741
1.210564
2.195214
3.183588
4.174482
5.167158
6.161143
7.156114
8.151848
9.148184
9.355642
9.334729
9.383478
8.749586
7.753474
6.758023
5.763415
4.769908
3.777876
2.787882
1.800817
0.818171
-0.157365
-1.120424
-2.058723
-2.938178
-3.639445
-3.795379
-3.253257
-2.421025
-1.499841
-0.544541
0.426888
1.407114
2.392639
3.381594
4.372892
5.365863
6.360067
7.355206
8.351072
9.347512
9.345886
9.338914
9.401543
8.550318
7.554326
6.559027
5.564616
4.571369
3.579692
2.590198
1.603871
0.622376
-0.351225
-1.310676
-2.241176
-3.099708
-3.730704
-3.730704
-3.099708
-2.241176
-1.310676
-0.351225
0.622376
1.603871
2.590198
3.579692
4.571369
5.564616
6.559027
7.554326
8.550318
9.401543
9.338914
9.345886
9.347512
8.351072
7.355206
6.360067
5.365863
4.372892
3.381594
2.392639
1.407114
0.426888
-0.544541
-1.499841
-2.421025
-3.253257
-3.795379
-3.639445
-2.938178
-2.058723
-1.120424
-0.157365
0.818171
1.800817
2.787882
3.777876
4.769908
5.763415
6.758023
7.753474
8.749586
9.383478
9.334729
9.355642
9.148184
8.151848
7.156114
6.161143
5.167158
4.174482
3.183588
2.195214
1.210564
0.231741
-0.737241
-1.687733
-2.597686
-3.396532
-3.829055
-3.526531
-2.770401
-1.874122
-0.929237
0.036974
1.014242
1.997936
2.985682
3.976141
4.968506
5.000000
4.000000
3.000000
2.000000
1.000000
0.000000
0.000000
1.000000
2.000000
3.000000
4.000000
5.000000
4.901403
3.901560
2.901758
1.902013
0.902354
-0.097166
-1.096440
-2.095215
-3.092704
-4.084698
-4.805635
-3.887445
-2.893397
-1.895523
-0.896614
0.102723
1.102276
2.101956
3.101714
4.101526
5.101375
6.101251
7.101148
8.101060
8.454285
8.357312
8.334833
8.387224
8.513615
7.701094
6.701187
5.701298
4.701432
3.701596
2.701804
1.702073
0.702436
-0.297046
-1.296248
-2.294861
-3.291850
-4.280432
-4.656812
-3.689360
-2.693969
-1.695794
-0.696771
0.302620
1.302204
2.301902
3.301673
4.301493
5.301348
6.301229
7.301129
8.301044
8.428990
8.346827
8.339332
8.406632
8.501029
7.501111
6.501208
5.501323
4.501462
3.501634
2.501852
1.502136
0.502525
-0.496915
-1.496034
-2.494451
-3.490769
-4.472954
-4.472954
-3.490769
-2.494451
-1.496034
-0.496915
0.502525
1.502136
2.501852
3.501634
4.501462
5.501323
6.501208
7.501111
8.501029
8.406632
8.339332
8.346827
8.428990
8.301044
7.301129
6.301229
5.301348
4.301493
3.301673
2.301902
1.302204
0.302620
-0.696771
-1.695794
-2.693969
-3.689360
-4.656812
-4.280432
-3.291850
-2.294861
-1.296248
-0.297046
0.702436
1.702073
2.701804
3.701596
4.701432
5.701298
6.701187
7.701094
8.513615
8.387224
8.334833
8.357312
8.454285
8.101060
7.101148
6.101251
5.101375
4.101526
3.101714
2.101956
1.102276
0.102723
-0.896614
-1.895523
-2.893397
-3.887445
-4.805635
-4.084698
-3.092704
-2.095215
-1.096440
-0.097166
0.902354
1.902013
2.901758
3.901560
4.901403
5.000000
4.000000
3.000000
2.000000
1.000000
0.000000
0.000000
1.000000
2.000000
3.000000
4.000000
5.000000
4.935011
3.938929
2.943831
1.950140
0.958561
-0.029643
-1.011962
-1.982643
-2.925284
-3.773442
-4.160688
-3.619984
-2.740698
-1.789946
-0.816169
0.167634
1.156659
2.148737
3.142754
4.138077
5.134320
6.131237
7.128662
7.647178
7.463993
7.359252
7.334955
7.391574
7.528013
7.727311
6.729640
5.732402
4.735730
3.739819
2.744963
1.751625
0.760594
-0.226695
-1.207317
-2.174324
-3.106737
-3.911678
-4.114311
-3.455835
-2.553688
-1.596407
-0.619995
0.365114
1.354876
2.347411
3.341729
4.337261
5.333656
6.330686
7.328197
7.604408
7.436684
7.347919
7.339818
7.412538
7.564677
7.527747
6.530154
5.533017
4.536480
3.540752
2.546154
1.553201
0.562773
-0.423490
-1.402161
-2.364769
-3.284062
-4.028175
-4.028175
-3.284062
-2.364769
-1.402161
-0.423490
0.562773
1.553201
2.546154
3.540752
4.536480
5.533017
6.530154
7.527747
7.564677
7.412538
7.339818
7.347919
7.436684
7.604408
7.328197
6.330686
5.333656
4.337261
3.341729
2.347411
1.354876
0.365114
-0.619995
-1.596407
-2.553688
-3.455835
-4.114311
-3.911678
-3.106737
-2.174324
-1.207317
-0.226695
0.760594
1.751625
2.744963
3.739819
4.735730
5.732402
6.729640
7.727311
7.528013
7.391574
7.334955
7.359252
7.463993
7.647178
7.128662
6.131237
5.134320
4.138077
3.142754
2.148737
1.156659
0.167634
-0.816169
-1.789946
-2.740698
-3.619984
-4.160688
-3.773442
-2.925284
-1.982643
-1.011962
-0.029643
0.958561
1.950140
2.943831
3.938929
4.935011
5.000000
4.000000
3.000000
2.000000
1.000000
0.000000
0.000000
1.000000
2.000000
3.000000
4.000000
5.000000
5.068322
4.086865
3.109939
2.139406
1.178277
0.231741
-0.690579
-1.569095
-2.359714
-2.957670
-3.163941
-2.861984
-2.212329
-1.398457
-0.508774
0.419512
1.369546
2.332879
3.304885
4.282840
5.265043
6.250383
6.953428
6.674093
6.475384
6.361534
6.335098
6.396686
6.544888
6.776436
6.842766
5.855925
4.871733
3.891069
2.915245
1.946302
0.987580
0.044909
-0.870701
-1.736396
-2.499778
-3.037575
-3.142283
-2.752532
-2.058723
-1.224936
-0.325483
0.608129
1.561335
2.526693
3.500065
4.478983
5.461889
6.447756
6.891360
6.627745
6.445717
6.349205
6.340390
6.419477
6.584664
6.832347
6.645218
5.658851
4.675284
3.695465
2.720823
1.753600
0.797509
-0.140873
-1.048910
-1.899821
-2.631222
-3.099708
-3.099708
-2.631222
-1.899821
-1.048910
-0.140873
0.797509
1.753600
2.720823
3.695465
4.675284
5.658851
6.645218
6.832347
6.584664
6.419477
6.340390
6.349205
6.445717
6.627745
6.891360
6.447756
5.461889
4.478983
3.500065
2.526693
1.561335
0.608129
-0.325483
-1.224936
-2.058723
-2.752532
-3.142283
-3.037575
-2.499778
-1.736396
-0.870701
0.044909
0.987580
1.946302
2.915245
3.891069
4.871733
5.855925
6.842766
6.776436
6.544888
6.396686
6.335098
6.361534
6.475384
6.674093
6.953428
6.250383
5.265043
4.282840
3.304885
2.332879
1.369546
0.419512
-0.508774
-1.398457
-2.212329
-2.861984
-3.163941
-2.957670
-2.359714
-1.569095
-0.690579
0.231741
1.178277
2.139406
3.109939
4.086865
5.068322
5.000000
4.000000
3.000000
2.000000
1.000000
0.000000
0.000000
1.000000
2.000000
3.000000
4.000000
5.000000
5.297465
4.340117
3.392722
2.459074
1.545058
0.660192
-0.179442
-0.945647
-1.588581
-2.027160
-2.164903
-1.960629
-1.473277
-0.800265
-0.016249
0.834190
1.725903
2.644461
3.581246
4.530885
5.489889
6.393760
6.009895
5.705969
5.488936
5.364255
5.335269
5.402777
5.564932
5.817476
6.154272
6.068775
5.105334
4.149742
3.204741
2.274461
1.365358
0.487967
-0.339766
-1.086207
-1.695794
-2.081477
-2.150829
-1.882665
-1.350647
-0.650543
0.149542
1.009807
1.907806
2.830567
3.770278
4.722025
5.682592
6.310958
5.942476
5.655411
5.456471
5.350738
5.341072
5.427741
5.608382
5.878317
6.231108
5.875559
4.913515
3.959787
3.017342
2.090682
1.186904
0.317685
-0.496915
-1.221405
-1.794103
-2.122887
-2.122887
-1.794103
-1.221405
-0.496915
0.317685
1.186904
2.090682
3.017342
3.959787
4.913515
5.875559
6.231108
5.878317
5.608382
5.427741
5.341072
5.350738
5.456471
5.655411
5.942476
6.310958
5.682592
4.722025
3.770278
2.830567
1.907806
1.009807
0.149542
-0.650543
-1.350647
-1.882665
-2.150829
-2.081477
-1.695794
-1.086207
-0.339766
0.487967
1.365358
2.274461
3.204741
4.149742
5.105334
6.068775
6.154272
5.817476
5.564932
5.402777
5.335269
5.364255
5.488936
5.705969
6.009895
6.393760
5.489889
4.530885
3.581246
2.644461
1.725903
0.834190
-0.016249
-0.800265
-1.473277
-1.960629
-2.164903
-2.027160
-1.588581
-0.945647
-0.179442
0.660192
1.545058
2.459074
3.392722
4.340117
5.297465
5.000000
4.000000
3.000000
2.000000
1.000000
0.000000
0.000000
1.000000
2.000000
3.000000
4.000000
5.000000
5.616235
4.690431
3.780914
2.893316
2.035939
1.221290
0.468496
-0.193292
-0.721631
-1.062432
-1.165363
-1.011962
-0.629137
-0.070046
0.612882
1.380003
2.204474
3.068733
3.961275
4.874434
5.802983
5.495290
5.077257
4.744286
4.505320
4.367556
4.335476
4.410160
4.589114
4.866667
5.234799
5.684152
5.429978
4.507073
3.601421
2.719096
1.869093
1.065018
0.327705
-0.311243
-0.806619
-1.103278
-1.154945
-0.952230
-0.529604
0.058107
0.760594
1.540982
2.374581
3.245268
4.142453
5.059048
5.884444
5.405341
5.003555
4.688710
4.469483
4.352599
4.341901
4.437749
4.636966
4.933333
5.318484
5.782908
5.244240
4.324400
3.422853
2.546154
1.704062
0.911383
0.190804
-0.423490
-0.883637
-1.134195
-1.134195
-0.883637
-0.423490
0.190804
0.911383
1.704062
2.546154
3.422853
4.324400
5.244240
5.782908
5.318484
4.933333
4.636966
4.437749
4.341901
4.352599
4.469483
4.688710
5.003555
5.405341
5.884444
5.059048
4.142453
3.245268
2.374581
1.540982
0.760594
0.058107
-0.529604
-0.952230
-1.154945
-1.103278
-0.806619
-0.311243
0.327705
1.065018
1.869093
2.719096
3.601421
4.507073
5.429978
5.684152
5.234799
4.866667
4.589114
4.410160
4.335476
4.367556
4.505320
4.744286
5.077257
5.495290
5.802983
4.874434
3.961275
3.068733
2.204474
1.380003
0.612882
-0.070046
-0.629137
-1.011962
-1.165363
-1.062432
-0.721631
-0.193292
0.468496
1.221290
2.035939
2.893316
3.780914
4.690431
5.616235
5.000000
4.000000
3.000000
2.000000
1.000000
0.000000
0.000000
1.000000
2.000000
3.000000
4.000000
5.000000
6.000000
5.127740
4.261269
3.424435
2.626999
1.882667
1.210564
0.636587
0.193372
-0.083588
-0.165632
-0.043074
0.269830
0.742048
1.338068
2.026458
2.782744
3.589011
4.432450
5.303937
5.153051
4.616883
4.158845
3.791157
3.525517
3.371645
3.335733
3.419290
3.618842
3.926614
4.331905
4.822650
5.386744
4.952442
4.091266
3.261423
2.473360
1.741744
1.086962
0.536345
0.123584
-0.116240
-0.157365
0.005109
0.352673
0.852445
1.469243
2.172943
2.940473
3.755062
4.604744
5.480988
5.040142
4.518637
4.077689
3.729516
3.485543
3.354905
3.342928
3.450115
3.672050
4.000247
4.423611
4.929977
5.507352
4.778093
3.922506
3.100069
2.321961
1.603871
0.967505
0.441609
0.060742
-0.140873
-0.140873
0.060742
0.441609
0.967505
1.603871
2.321961
3.100069
3.922506
4.778093
5.507352
4.929977
4.423611
4.000247
3.672050
3.450115
3.342928
3.354905
3.485543
3.729516
4.077689
4.518637
5.040142
5.480988
4.604744
3.755062
2.940473
2.172943
1.469243
0.852445
0.352673
0.005109
-0.157365
-0.116240
0.123584
0.536345
1.086962
1.741744
2.473360
3.261423
4.091266
4.952442
5.386744
4.822650
4.331905
3.926614
3.618842
3.419290
3.335733
3.371645
3.525517
3.791157
4.158845
4.616883
5.153051
5.303937
4.432450
3.589011
2.782744
2.026458
1.338068
0.742048
0.269830
-0.043074
-0.165632
-0.083588
0.193372
0.636587
1.210564
1.882667
2.626999
3.424435
4.261269
5.127740
6.000000
5.000000
4.000000
3.000000
2.000000
1.000000
0.000000
0.000000
1.000000
2.000000
3.000000
4.000000
5.000000
6.000000
5.641324
4.820274
4.035363
3.296853
2.618253
2.016964
1.514428
1.134964
0.902354
0.834190
0.936142
1.199821
1.605890
2.130062
2.748405
3.440247
4.189003
4.981872
5.000889
4.349747
3.764575
3.259405
2.849699
2.551012
2.376841
2.336060
2.430867
2.656225
3.001111
3.450904
3.989871
4.603009
5.277051
4.660113
3.883568
3.155843
2.491180
1.907806
1.427891
1.076000
0.875183
0.841043
0.976435
1.270389
1.702073
2.246915
2.881483
3.585906
4.344398
5.144840
4.865991
4.227013
3.656661
3.169319
2.780603
2.505850
2.357838
2.344234
2.465774
2.716073
3.083179
3.552063
4.107018
4.733333
5.309111
4.501462
3.733715
3.017342
2.367345
1.802777
1.346478
1.023104
0.854723
0.854723
1.023104
1.346478
1.802777
2.367345
3.017342
3.733715
4.501462
5.309111
4.733333
4.107018
3.552063
3.083179
2.716073
2.465774
2.344234
2.357838
2.505850
2.780603
3.169319
3.656661
4.227013
4.865991
5.144840
4.344398
3.585906
2.881483
2.246915
1.702073
1.270389
0.976435
0.841043
0.875183
1.076000
1.427891
1.907806
2.491180
3.155843
3.883568
4.660113
5.277051
4.603009
3.989871
3.450904
3.001111
2.656225
2.430867
2.336060
2.376841
2.551012
2.849699
3.259405
3.764575
4.349747
5.000889
4.981872
4.189003
3.440247
2.748405