# vtk DataFile Version 3.0
Para0
ASCII
DATASET RECTILINEAR_GRID
DIMENSIONS 161 81 1
X_COORDINATES 161 int
0 1 2 3 4 5 6 7 8 9 10 11 12 13 14 15 16 17 18 19 20 21 22 23 24 25 26 27 28 29 30 31 32 33 34 35 36 37 38 39 40 41 42 43 44 45 46 47 48 49 50 51 52 53 54 55 56 57 58 59 60 61 62 63 64 65 66 67 68 69 70 71 72 73 74 75 76 77 78 79 80 81 82 83 84 85 86 87 88 89 90 91 92 93 94 95 96 97 98 99 100 101 102 103 104 105 106 107 108 109 110 111 112 113 114 115 116 117 118 119 120 121 122 123 124 125 126 127 128 129 130 131 132 133 134 135 136 137 138 139 140 141 142 143 144 145 146 147 148 149 150 151 152 153 154 155 156 157 158 159 160 
Y_COORDINATES 81 int
0 1 2 3 4 5 6 7 8 9 10 11 12 13 14 15 16 17 18 19 20 21 22 23 24 25 26 27 28 29 30 31 32 33 34 35 36 37 38 39 40 41 42 43 44 45 46 47 48 49 50 51 52 53 54 55 56 57 58 59 60 61 62 63 64 65 66 67 68 69 70 71 72 73 74 75 76 77 78 79 80 
Z_COORDINATES 1 int
0

POINT_DATA 13041
SCALARS distance float 1
LOOKUP_TABLE default
0.000000
0.000000
0.000000
0.000000
0.000000
0.000000
0.000000
0.000000
0.000000
0.000000
0.000000
0.000000
0.000000
0.000000
0.000000
0.000000
0.000000
0.000000
0.000000
0.000000
0.000000
0.000000
0.000000
0.000000
0.000000
0.000000
0.000000
0.000000
0.000000
0.000000
0.000000
0.000000
0.000000
0.000000
0.000000
0.000000
0.000000
0.000000
0.000000
0.000000
0.000000
0.000000
0.000000
0.000000
0.000000
0.000000
0.000000
0.000000
0.000000
0.000000
0.000000
0.000000
0.000000
0.000000
0.000000
0.000000
0.000000
0.000000
0.000000
0.000000
0.000000
0.000000
0.000000
0.000000
0.000000
0.000000
0.000000
0.000000
0.000000
0.000000
0.000000
0.000000
0.000000
0.000000
0.000000
0.000000
0.000000
0.000000
0.000000
0.000000
0.000000
0.000000
0.000000
0.000000
0.000000
0.000000
0.000000
0.000000
0.000000
0.000000
0.000000
0.000000
0.000000
0.000000
0.000000
0.000000
0.000000
0.000000
0.000000
0.000000
0.000000
0.000000
0.000000
0.000000
0.000000
0.000000
0.000000
-0.001197
-0.007856
-0.015077
-0.022122
-0.028304
-0.033158
-0.036507
-0.038350
-0.038350
-0.038350
-0.037962
-0.036756
-0.035538
-0.034564
-0.034110
-0.034110
-0.034357
-0.035124
-0.036331
-0.037382
-0.038614
-0.039785
-0.040829
-0.041706
-0.042532
-0.043332
-0.043364
-0.043696
-0.043963
-0.044244
-0.044639
-0.045320
-0.046427
-0.047824
-0.049357
-0.050798
-0.051911
-0.052546
-0.052696
-0.052489
-0.052127
-0.051795
-0.051794
-0.051794
-0.051794
-0.051979
-0.052174
-0.052395
-0.052574
-0.052701
-0.052112
-0.052648
-0.037358
-0.052834
0.000000
0.707107
0.996724
0.987283
0.999920
0.999981
1.000000
1.000000
1.000000
1.000000
1.000000
1.000000
1.000000
1.000000
1.000000
1.000000
1.000000
1.000000
1.000000
1.000000
1.000000
1.000000
1.000000
1.000000
1.000000
1.000000
1.000000
1.000000
1.000000
1.000000
1.000000
1.000000
1.000000
1.000000
1.000000
1.000000
1.000000
1.000000
1.000000
1.000000
1.000000
1.000000
1.000000
1.000000
1.000000
1.000000
1.000000
1.000000
1.000000
1.000000
1.000000
1.000000
1.000000
1.000000
1.000000
1.000000
1.000000
1.000000
1.000000
1.000000
1.000000
1.000000
1.000000
1.000000
1.000000
1.000000
1.000000
1.000000
1.000000
1.000000
1.000000
1.000000
1.000000
1.000000
1.000000
1.000000
1.000000
1.000000
1.000000
1.000000
1.000000
1.000000
1.000000
1.000000
1.000000
1.000000
1.000000
1.000000
1.000000
1.000000
1.000000
1.000000
1.000000
1.000000
1.000000
1.000000
1.000000
1.000000
1.000000
1.000000
1.000000
1.000000
1.000000
1.000000
1.000000
1.000000
1.000000
0.998803
0.992144
0.984923
0.977878
0.971696
0.966842
0.963493
0.961650
0.961650
0.961650
0.962038
0.963244
0.964462
0.965436
0.965890
0.965890
0.965643
0.964876
0.963669
0.962618
0.961386
0.960215
0.959171
0.958294
0.957468
0.956668
0.956636
0.956304
0.956037
0.955756
0.955361
0.954680
0.953573
0.952176
0.950643
0.949202
0.948089
0.947454
0.947304
0.947511
0.947873
0.948205
0.948206
0.948206
0.948206
0.948021
0.947826
0.947605
0.947407
0.947232
0.935166
0.943695
0.654274
-0.037358
0.000000
0.996724
1.800370
1.976733
1.998886
1.999944
2.000000
2.000000
2.000000
2.000000
2.000000
2.000000
2.000000
2.000000
2.000000
2.000000
2.000000
2.000000
2.000000
2.000000
2.000000
2.000000
2.000000
2.000000
2.000000
2.000000
2.000000
2.000000
2.000000
2.000000
2.000000
2.000000
2.000000
2.000000
2.000000
2.000000
2.000000
2.000000
2.000000
2.000000
2.000000
2.000000
2.000000
2.000000
2.000000
2.000000
2.000000
2.000000
2.000000
2.000000
2.000000
2.000000
2.000000
2.000000
2.000000
2.000000
2.000000
2.000000
2.000000
2.000000
2.000000
2.000000
2.000000
2.000000
2.000000
2.000000
2.000000
2.000000
2.000000
2.000000
2.000000
2.000000
2.000000
2.000000
2.000000
2.000000
2.000000
2.000000
2.000000
2.000000
2.000000
2.000000
2.000000
2.000000
2.000000
2.000000
2.000000
2.000000
2.000000
2.000000
2.000000
2.000000
2.000000
2.000000
2.000000
2.000000
2.000000
2.000000
2.000000
2.000000
2.000000
2.000000
2.000000
2.000000
2.000000
2.000000
2.000000
1.998803
1.992144
1.984923
1.977878
1.971696
1.966842
1.963493
1.961650
1.961650
1.961650
1.962038
1.963244
1.964462
1.965436
1.965890
1.965890
1.965643
1.964876
1.963669
1.962618
1.961386
1.960215
1.959171
1.958294
1.957468
1.956668
1.956636
1.956304
1.956037
1.955756
1.955361
1.954680
1.953573
1.952176
1.950643
1.949202
1.948089
1.947454
1.947304
1.947511
1.947873
1.948205
1.948206
1.948206
1.948206
1.948021
1.947826
1.947605
1.947373
1.946259
1.924262
1.755171
0.943695
-0.052648
0.000000
0.987283
1.976733
2.777954
2.996795
2.995821
2.999994
2.999999
3.000000
3.000000
3.000000
3.000000
3.000000
3.000000
3.000000
3.000000
3.000000
3.000000
3.000000
3.000000
3.000000
3.000000
3.000000
3.000000
3.000000
3.000000
3.000000
3.000000
3.000000
3.000000
3.000000
3.000000
3.000000
3.000000
3.000000
3.000000
3.000000
3.000000
3.000000
3.000000
3.000000
3.000000
3.000000
3.000000
3.000000
3.000000
3.000000
3.000000
3.000000
3.000000
3.000000
3.000000
3.000000
3.000000
3.000000
3.000000
3.000000
3.000000
3.000000
3.000000
3.000000
3.000000
3.000000
3.000000
3.000000
3.000000
3.000000
3.000000
3.000000
3.000000
3.000000
3.000000
3.000000
3.000000
3.000000
3.000000
3.000000
3.000000
3.000000
3.000000
3.000000
3.000000
3.000000
3.000000
3.000000
3.000000
3.000000
3.000000
3.000000
3.000000
3.000000
3.000000
3.000000
3.000000
3.000000
3.000000
3.000000
3.000000
3.000000
3.000000
3.000000
3.000000
3.000000
3.000000
3.000000
3.000000
3.000000
2.998803
2.992144
2.984923
2.977878
2.971696
2.966842
2.963493
2.961650
2.961650
2.961650
2.962038
2.963244
2.964462
2.965436
2.965890
2.965890
2.965643
2.964876
2.963669
2.962618
2.961386
2.960215
2.959171
2.958294
2.957468
2.956668
2.956636
2.956304
2.956037
2.955756
2.955361
2.954680
2.953573
2.952176
2.950643
2.949202
2.948089
2.947454
2.947304
2.947511
2.947873
2.948205
2.948206
2.948206
2.948206
2.948021
2.947824
2.947605
2.943534
2.944115
2.732750
1.924259
0.935162
-0.052116
0.000000
0.999920
1.998886
2.996795
3.800835
3.989736
3.997721
3.999998
4.000000
4.000000
4.000000
4.000000
4.000000
4.000000
4.000000
4.000000
4.000000
4.000000
4.000000
4.000000
4.000000
4.000000
4.000000
4.000000
4.000000
4.000000
4.000000
4.000000
4.000000
4.000000
4.000000
4.000000
4.000000
4.000000
4.000000
4.000000
4.000000
4.000000
4.000000
4.000000
4.000000
4.000000
4.000000
4.000000
4.000000
4.000000
4.000000
4.000000
4.000000
4.000000
4.000000
4.000000
4.000000
4.000000
4.000000
4.000000
4.000000
4.000000
4.000000
4.000000
4.000000
4.000000
4.000000
4.000000
4.000000
4.000000
4.000000
4.000000
4.000000
4.000000
4.000000
4.000000
4.000000
4.000000
4.000000
4.000000
4.000000
4.000000
4.000000
4.000000
4.000000
4.000000
4.000000
4.000000
4.000000
4.000000
4.000000
4.000000
4.000000
4.000000
4.000000
4.000000
4.000000
4.000000
4.000000
4.000000
4.000000
4.000000
4.000000
4.000000
4.000000
4.000000
4.000000
4.000000
4.000000
4.000000
4.000000
3.998803
3.992144
3.984923
3.977878
3.971336
3.964802
3.963029
3.961650
3.961650
3.961650
3.962038
3.963244
3.964462
3.965436
3.965890
3.965890
3.965643
3.964876
3.963669
3.962618
3.961386
3.960215
3.959171
3.958294
3.957468
3.956668
3.956636
3.956304
3.956037
3.955756
3.955361
3.954680
3.953573
3.952176
3.950643
3.949202
3.947429
3.944221
3.946634
3.947511
3.947873
3.948205
3.948206
3.948206
3.948206
3.948021
3.947826
3.945494
3.937370
3.755750
2.944096
1.946237
0.947209
-0.052724
0.000000
0.999981
1.999944
2.995821
3.989736
4.792446
4.993652
4.996940
4.999985
4.995385
4.994588
4.805841
4.390413
4.085983
3.893293
3.765556
3.734616
3.836548
4.020670
4.204876
4.476920
4.864486
4.994588
4.995408
4.999986
4.999998
5.000000
5.000000
5.000000
5.000000
5.000000
5.000000
5.000000
5.000000
5.000000
5.000000
5.000000
5.000000
5.000000
4.999998
4.999986
4.995377
4.994588
4.784216
4.352204
4.018338
3.785669
3.631213
3.576885
3.672155
3.859603
4.087747
4.402873
4.818598
4.994588
4.995390
4.999986
4.999998
5.000000
5.000000
5.000000
5.000000
5.000000
5.000000
5.000000
5.000000
5.000000
5.000000
5.000000
5.000000
5.000000
4.999998
4.999986
4.995367
4.994588
4.758463
4.308040
3.943182
3.672507
3.500557
3.434163
3.532323
3.729783
3.996887
4.347215
4.785037
4.994588
4.995377
4.999986
4.999998
5.000000
5.000000
5.000000
5.000000
5.000000
5.000000
5.000000
5.000000
5.000000
5.000000
5.000000
5.000000
5.000000
4.999998
4.999986
4.995358
4.987950
4.715378
4.265713
3.889576
3.600255
3.416831
3.340821
3.438901
3.641666
3.934622
4.308851
4.761829
4.965953
4.960140
4.965419
4.965892
4.965891
4.965643
4.964876
4.963669
4.962618
4.961386
4.960215
4.959171
4.958294
4.957468
4.956668
4.956635
4.956306
4.956041
4.955741
4.951105
4.947500
4.702804
4.249293
3.865388
3.566170
3.372269
3.286859
3.379909
3.581081
3.883523
4.267993
4.723282
4.945285
4.944017
4.948008
4.944985
4.941374
4.747337
3.937303
2.943454
1.947293
0.947327
-0.052654
0.000000
1.000000
2.000000
2.999994
3.997721
4.993652
5.797034
5.991922
5.829185
5.184341
4.560357
4.017025
3.566754
3.221292
2.973491
2.813663
2.781656
2.902080
3.141782
3.411248
3.745370
4.174778
4.687982
5.271510
5.847871
6.003192
5.997295
5.999998
5.999999
6.000000
6.000000
6.000000
6.000000
6.000000
6.000000
6.000000
5.999999
5.999998
5.997293
5.998849
5.824222
5.161799
4.523979
3.965938
3.497914
3.127311
2.849041
2.662193
2.605435
2.713184
2.946787
3.238378
3.602684
4.058480
4.598629
5.212477
5.835146
6.000855
5.997294
5.999998
5.999999
6.000000
6.000000
6.000000
6.000000
6.000000
6.000000
6.000000
5.999999
5.999998
5.997292
5.997006
5.810963
5.127388
4.477478
3.903601
3.416329
3.020323
2.715658
2.513808
2.445982
2.553371
2.791368
3.106233
3.497306
3.975111
4.536176
5.172065
5.826435
5.999256
5.997293
5.999998
5.999999
6.000000
6.000000
6.000000
6.000000
6.000000
6.000000
6.000000
5.999999
5.999998
5.997292
5.995717
5.800771
5.106789
4.451124
3.869062
3.369792
2.957334
2.634428
2.419711
2.341699
2.446398
2.685521
3.015336
3.424433
3.917316
4.492874
5.142608
5.797091
5.965982
5.963352
5.965647
5.964876
6.000000
5.962618
5.961386
5.960215
5.959171
5.958293
6.000000
5.956668
5.956639
5.953813
5.954305
5.771600
5.103199
4.445830
3.860886
3.356738
2.936431
2.602574
2.375965
2.286859
2.384311
2.618989
2.955651
3.375716
3.878565
4.462008
5.117834
5.774054
5.939971
5.752213
4.941186
3.945269
2.947378
1.947377
0.947377
-0.052623
0.000000
1.000000
2.000000
2.999999
3.999998
4.996940
5.991922
6.039892
5.242644
4.486016
3.788918
3.173170
2.662494
2.275395
2.006185
1.814333
1.781628
1.911572
2.195640
2.474141
2.835390
3.317830
3.909821
4.587422
5.327192
6.039892
6.790971
6.998628
6.996131
6.999995
6.999999
7.000000
7.000000
7.000000
6.999999
6.999995
6.996131
6.998628
6.790971
6.039892
5.225007
4.463268
3.759219
3.133107
2.605973
2.192624
1.887637
1.664437
1.605418
1.720516
1.997765
2.309078
2.707559
3.217976
3.829728
4.521759
5.272946
6.039892
6.790971
6.998628
6.996131
6.999995
6.999999
7.000000
7.000000
7.000000
6.999999
6.999995
6.996131
6.998628
6.790971
6.039892
5.200193
4.432833
3.720847
3.082731
2.536846
2.095266
1.757085
1.516346
1.445975
1.559856
1.842369
2.185303
2.615333
3.148302
3.775366
4.478134
5.237430
6.039892
6.790971
6.998628
6.996131
6.999995
6.999999
7.000000
7.000000
7.000000
6.999999
6.999995
6.996131
6.998628
6.790971
6.039892
5.187987
4.417470
3.700888
3.055644
2.498341
2.038997
1.678498
1.422754
1.341698
1.452085
1.736070
2.099764
2.551316
3.099892
3.737667
4.448027
5.213110
6.039892
6.790971
6.998628
6.996131
6.999995
6.999999
7.000000
7.000000
7.000000
6.999999
6.999995
6.996131
6.998628
6.790971
6.039892
5.186445
4.415468
3.697841
3.050492
2.489110
2.022185
1.649375
1.379942
1.286859
1.389098
1.667937
2.042506
2.507966
3.067344
3.712837
4.428825
5.198267
6.039892
5.939477
4.944539
3.947378
2.947376
1.947377
0.947377
-0.052623
0.000000
1.000000
2.000000
3.000000
4.000000
4.999997
5.996280
5.499159
4.653837
3.841043
3.075319
2.380230
1.788476
1.336099
1.040712
0.816691
0.781628
0.924744
1.261242
1.541524
1.947556
2.504196
3.173602
3.919571
4.716847
5.549564
6.384633
7.275413
7.905579
7.987579
7.999828
7.999988
8.000000
7.999988
7.999828
7.987579
7.905579
7.275413
6.384633
5.490899
4.642914
3.826456
3.055482
2.352263
1.746417
1.267454
0.929867
0.667835
0.605418
0.730151
1.058195
1.388196
1.840066
2.424878
3.112320
3.870840
4.677231
5.516942
6.384633
7.275413
7.905579
7.987579
7.999828
7.999988
8.000000
7.999988
7.999828
7.987579
7.905579
7.275413
6.384633
5.475629
4.625427
3.805355
3.028543
2.315670
1.692833
1.182920
0.802620
0.519301
0.445975
0.567650
0.901974
1.276214
1.765133
2.371767
3.072531
3.839813
4.652187
5.496135
6.384633
7.275413
7.905579
7.987579
7.999828
7.999988
8.000000
7.999988
7.999828
7.987579
7.905579
7.275413
6.384633
5.468659
4.617365
3.795394
3.015370
2.296987
1.664159
1.135446
0.727170
0.425852
0.341698
0.458374
0.794461
1.198359
1.712909
2.334821
3.045029
3.818627
4.635423
5.482526
6.384633
7.275413
7.905579
7.987579
7.999828
7.999988
8.000000
7.999988
7.999828
7.987579
7.905579
7.275413
6.384633
5.467348
4.616429
3.794618
3.014327
2.294838
1.659141
1.123661
0.701588
0.384076
0.286859
0.394179
0.723478
1.144987
1.677218
2.310218
3.027550
3.806041
4.626317
5.475986
5.944002
4.947368
3.947369
2.947370
1.947370
0.947370
-0.052630
0.000000
1.000000
2.000000
3.000000
4.000000
4.999999
5.938025
5.023801
4.136617
3.273117
2.441580
1.659412
0.961121
0.399044
0.070154
-0.181584
-0.218373
-0.073041
0.310233
0.605778
1.092643
1.751410
2.508806
3.322795
4.173595
5.051545
5.950976
6.874351
7.808150
8.679055
8.999107
8.989820
8.999966
8.989820
8.999107
8.679055
7.808150
6.874351
5.927599
5.020384
4.131750
3.266174
2.431587
1.644462
0.936197
0.348343
-0.041242
-0.331113
-0.394582
-0.268515
0.098708
0.470494
1.013753
1.697887
2.469328
3.292387
4.149320
5.031478
5.933835
6.874351
7.808150
8.679055
8.999107
8.989820
8.999966
8.989820
8.999107
8.679055
7.808150
6.874351
5.916179
5.009149
4.120255
3.253583
2.416345
1.623555
0.902350
0.281685
-0.170862
-0.480319
-0.554025
-0.431751
-0.062548
0.375613
0.962257
1.664818
2.445658
3.274149
4.134283
5.018300
5.921688
6.874351
7.808150
8.679055
8.999107
8.989820
8.999966
8.989820
8.999107
8.679055
7.808150
6.874351
5.910929
5.004168
4.115336
3.248300
2.409850
1.614135
0.885772
0.247161
-0.244375
-0.573954
-0.658302
-0.541522
-0.173763
0.309102
0.926228
1.641934
2.429595
3.262168
4.124834
5.010425
5.914782
6.874351
7.808150
8.679055
8.999107
8.989820
8.999966
8.989820
8.999107
8.679055
7.808150
6.874351
5.908218
5.002178
4.114140
3.247914
2.410145
1.614661
0.885271
0.241770
-0.266862
-0.614880
-0.713141
-0.604983
-0.245010
0.263043
0.901649
1.627586
2.420749
3.256704
4.121486
5.008467
5.879802
4.947286
3.947286
2.947286
1.947286
0.947286
-0.052714
0.000000
1.000000
2.000000
3.000000
4.000000
5.000000
5.568678
4.627353
3.700297
2.791429
1.903209
1.035512
0.186986
-0.468398
-0.908974
-1.215227
-1.238156
-1.084609
-0.727257
-0.338595
0.258397
1.080914
1.932047
2.809930
3.712251
4.635101
5.574068
6.544325
7.504503
8.471328
9.449812
9.960411
9.983527
9.960411
9.449812
8.471328
7.504503
6.544325
5.569540
4.627228
3.699509
2.789915
1.900940
1.032552
0.183782
-0.487548
-0.976358
-1.334073
-1.406717
-1.258157
-0.869801
-0.410366
0.224412
1.057488
1.914346
2.795633
3.700046
4.624215
5.564033
6.544325
7.504503
8.471328
9.449812
9.960411
9.983527
9.960411
9.449812
8.471328
7.504503
6.544325
5.557699
4.616572
3.690185
2.782047
1.894503
1.027068
0.177951
-0.515450
-1.057102
-1.457173
-1.561376
-1.398375
-0.974737
-0.456025
0.209268
1.046495
1.905241
2.787037
3.691329
4.615098
5.554400
6.544325
7.504503
8.471328
9.449812
9.960411
9.983527
9.960411
9.449812
8.471328
7.504503
6.544325
5.551811
4.611462
3.685990
2.778920
1.892565
1.026261
0.177740
-0.528303
-1.102814
-1.532764
-1.661888
-1.493369
-1.047406
-0.488227
0.198823
1.039296
1.899778
2.782324
3.686876
4.610658
5.549849
6.544325
7.504503
8.471328
9.449812
9.960411
9.983527
9.960411
9.449812
8.471328
7.504503
6.544325
5.547363
4.607746
3.683201
2.777323
1.892499
1.028101
0.181621
-0.526896
-1.115262
-1.563742
-1.713545
-1.550918
-1.096121
-0.511114
0.193301
1.037224
1.899517
2.782883
3.687721
4.611505
5.549854
4.947214
3.947214
2.947214
1.947214
0.947214
-0.052786
-0.003506
0.996494
1.996494
2.996494
3.996494
4.996494
5.299455
4.326591
3.361943
2.409394
1.472896
0.549886
-0.382536
-1.156073
-1.771437
-2.202790
-2.281335
-2.074665
-1.641137
-1.089489
-0.368551
0.551672
1.470669
2.405556
3.357597
4.322288
5.295476
6.294776
7.275950
8.260563
9.255033
10.212791
10.655193
10.217943
9.255033
8.260563
7.275950
6.294776
5.301872
4.328365
3.362962
2.409513
1.471888
0.547382
-0.385170
-1.166158
-1.812631
-2.289847
-2.432634
-2.215406
-1.736968
-1.128723
-0.380689
0.543660
1.463443
2.398567
3.350607
4.315197
5.288237
6.294776
7.275950
8.260563
9.255033
10.212791
10.655193
10.217943
9.255033
8.260563
7.275950
6.294776
5.286183
4.313917
3.350024
2.398487
1.463406
0.542553
-0.389756
-1.181273
-1.863306
-2.383143
-2.574307
-2.325505
-1.804928
-1.152270
-0.385879
0.540222
1.457696
2.391022
3.341597
4.304956
5.276935
6.294776
7.275950
8.260563
9.255033
10.212791
10.655193
10.217943
9.255033
8.260563
7.275950
6.294776
5.277764
4.306199
3.343174
2.392760
1.459220
0.540663
-0.391065
-1.187804
-1.890792
-2.439166
-2.665423
-2.400443
-1.851874
-1.168285
-0.388556
0.538970
1.455414
2.387910
3.337793
4.300563
5.272029
6.294776
7.275950
8.260563
9.255033
10.212791
10.655193
10.217943
9.255033
8.260563
7.275950
6.294776
5.270937
4.299840
3.337420
2.387827
1.455469
0.538776
-0.391738
-1.187528
-1.897290
-2.460438
-2.710447
-2.446825
-1.882107
-1.177240
-0.385908
0.543197
1.458643
2.390253
3.339351
4.301411
5.272253
4.947227
3.947227
2.947227
1.947227
0.947227
-0.052773
-0.011180
0.988820
1.988820
2.988820
3.988820
4.988820
5.120679
4.127905
3.136071
2.145312
1.155703
0.166943
-0.832408
-1.730295
-2.504933
-3.103063
-3.336047
-3.003780
-2.436818
-1.713298
-0.848357
0.150292
1.143320
2.136275
3.129734
4.123778
5.118392
6.124541
7.118395
8.113291
9.105397
9.667317
9.666667
9.687393
9.105397
8.113291
7.118395
6.124541
5.126409
4.133069
3.140561
2.148989
1.158374
0.168355
-0.831056
-1.733478
-2.525289
-3.158737
-3.457556
-3.103032
-2.490068
-1.731537
-0.852931
0.145516
1.137620
2.129828
3.122679
4.116217
5.110402
6.124541
7.118395
8.113291
9.105397
9.667317
9.666667
9.687393
9.105397
8.113291
7.118395
6.124541
5.104406
4.111802
3.120158
2.129610
1.140251
0.151752
-0.846959
-1.748711
-2.556317
-3.222758
-3.575008
-3.179408
-2.528935
-1.746314
-0.862426
0.135603
1.125757
2.116385
3.107955
4.100423
5.093705
6.124541
7.118395
8.113291
9.105397
9.667317
9.666667
9.687393
9.105397
8.113291
7.118395
6.124541
5.092426
4.100167
3.108926
2.118853
1.130077
0.142275
-0.856035
-1.756580
-2.572996
-3.259714
-3.648953
-3.231089
-2.554513
-1.754840
-0.866228
0.131633
1.120762
2.110563
3.101461
4.093371
5.086182
6.124541
7.118395
8.113291
9.105397
9.667317
9.666667
9.687393
9.105397
8.113291
7.118395
6.124541
5.083217
4.091075
3.099966
2.110041
1.121445
0.133838
-0.864117
-1.761187
-2.578439
-3.273334
-3.682821
-3.262047
-2.569266
-1.756915
-0.863740
0.134232
1.121695
2.110179
3.100012
4.091046
5.083126
4.947407
3.947407
2.947407
1.947407
0.947407
-0.052593
-0.015678
0.984322
1.984322
2.984322
3.984322
4.984322
5.004962
4.004961
3.004959
2.004957
1.004953
0.004949
-0.995040
-1.992227
-2.950799
-3.794219
-4.304172
-3.736826
-2.920739
-1.978478
-0.982250
0.017751
1.017750
2.017752
3.017756
4.017761
5.017763
6.011130
7.011130
8.001011
8.725818
8.716534
8.666667
8.737437
8.725818
8.001011
7.011130
6.011130
5.015391
4.015390
3.015387
2.015384
1.015383
0.015383
-0.984618
-1.984856
-2.952067
-3.817477
-4.390523
-3.791350
-2.945809
-1.991568
-0.993830
0.006161
1.006165
2.006168
3.006170
4.006171
5.006172
6.011130
7.011130
8.001011
8.725818
8.716534
8.666667
8.737437
8.725818
8.001011
7.011130
6.011130
4.987157
3.987153
2.987147
1.987136
0.987122
-0.012894
-1.012851
-2.010227
-2.978417
-3.857294
-4.483210
-3.837605
-2.972374
-2.013745
-1.018078
-0.018131
0.981888
1.981906
2.981919
3.981926
4.981931
6.011130
7.011130
8.001011
8.725818
8.716534
8.666667
8.737437
8.725818
8.001011
7.011130
6.011130
4.972250
3.972245
2.972234
1.972218
0.972194
-0.027832
-1.027762
-2.023589
-2.992405
-3.877915
-4.522202
-3.864882
-2.987381
-2.024566
-1.029526
-0.029600
0.970427
1.970452
2.970470
3.970481
4.970487
6.011130
7.011130
8.001011
8.725818
8.716534
8.666667
8.737437
8.725818
8.001011
7.011130
6.011130
4.962008
3.962001
2.961988
1.961966
0.961936
-0.038096
-1.038007
-2.032589
-3.000049
-3.886807
-4.528522
-3.881072
-2.996904
-2.032092
-1.038611
-0.038701
0.961332
1.961362
2.961384
3.961397
4.961404
4.947812
3.947812
2.947812
1.947812
0.947812
-0.052188
-0.017783
0.982217
1.982217
2.982217
3.982217
4.982217
5.018676
4.018615
3.018538
2.018439
1.018312
0.018142
-0.981701
-1.953753
-2.849721
-3.619187
-4.091361
-3.673614
-2.867279
-1.939778
-0.948876
0.051121
1.050568
2.050032
3.049514
4.049013
5.048528
6.041669
7.041210
7.855433
7.859030
7.740046
7.666667
7.740046
7.859030
7.855433
7.041210
6.041669
5.028751
4.028684
3.028603
2.028504
1.028381
0.028222
-0.971680
-1.950480
-2.857139
-3.643566
-4.143545
-3.704514
-2.880587
-1.947478
-0.957595
0.042391
1.041765
2.041154
3.040560
4.039985
5.039427
6.041669
7.041210
7.855433
7.859030
7.740046
7.666667
7.740046
7.859030
7.855433
7.041210
6.041669
5.007766
4.007914
3.008054
2.008179
1.008283
0.008350
-0.991434
-1.968141
-2.881854
-3.690737
-4.221832
-3.731551
-2.898102
-1.965181
-0.979998
0.019855
1.019224
2.018591
3.017969
4.017358
5.016763
6.041669
7.041210
7.855433
7.859030
7.740046
7.666667
7.740046
7.859030
7.855433
7.041210
6.041669
4.997606
3.997897
2.998184
1.998461
0.998720
-0.001056
-1.000785
-1.977528
-2.897276
-3.720406
-4.269015
-3.743077
-2.904635
-1.972285
-0.989995
0.009799
1.009145
2.008484
3.007830
4.007187
5.006558
6.041669
7.041210
7.855433
7.859030
7.740046
7.666667
7.740046
7.859030
7.855433
7.041210
6.041669
4.993066
3.993532
2.994002
1.994469
0.994927
-0.004642
-1.004350
-1.980081
-2.902294
-3.732347
-4.284923
-3.749277
-2.912628
-1.984318
-1.005595
-0.005895
0.993698
1.993262
2.992815
3.992364
4.991915
4.948454
3.948454
2.948454
1.948454
0.948454
-0.051546
-0.018113
0.981887
1.981887
2.981887
3.981887
4.981887
5.124352
4.137671
3.155172
2.178635
1.209964
0.248586
-0.748164
-1.559610
-2.276938
-2.844004
-3.106856
-2.943406
-2.351550
-1.591869
-0.740462
0.256969
1.222311
2.193779
3.172340
4.156346
5.144172
6.144477
7.055162
7.071572
6.870147
6.742857
6.666667
6.742857
6.870147
7.071572
7.055162
6.144477
5.127648
4.140194
3.156720
2.178918
1.208528
0.244598
-0.751828
-1.573055
-2.303793
-2.889067
-3.174467
-2.995600
-2.375886
-1.597383
-0.739992
0.257481
1.221184
2.191505
3.169205
4.152538
5.139819
6.144477
7.055162
7.071572
6.870147
6.742857
6.666667
6.742857
6.870147
7.071572
7.055162
6.144477
5.115456
4.129012
3.146772
2.170530
1.202186
0.241061
-0.755078
-1.586081
-2.343096
-2.963519
-3.269277
-3.039103
-2.394554
-1.604003
-0.746751
0.250124
1.211356
2.179835
3.156141
4.138385
5.124790
6.144477
7.055162
7.071572
6.870147
6.742857
6.666667
6.742857
6.870147
7.071572
7.055162
6.144477
5.109616
4.123669
3.142030
2.166543
1.199182
0.239395
-0.756609
-1.595847
-2.370597
-3.013054
-3.327580
-3.059081
-2.400638
-1.604171
-0.747949
0.248821
1.208552
2.175959
3.151462
4.133079
5.118979
6.144477
7.055162
7.071572
6.870147
6.742857
6.666667
6.742857
6.870147
7.071572
7.055162
6.144477
5.109150
4.123671
3.142597
2.167817
1.201391
0.242980
-0.753315
-1.595976
-2.380353
-3.035949
-3.356068
-3.064399
-2.402236
-1.607747
-0.756983
0.238987
1.197979
2.164751
3.139779
4.121041
5.106683
4.949295
3.949295
2.949295
1.949295
0.949295
-0.050705
-0.017893
0.982107
1.982107
2.982107
3.982107
4.982107
5.350177
4.396746
3.459051
2.543509
1.654715
0.781417
-0.166474
-0.864132
-1.502511
-1.909064
-2.098495
-2.031972
-1.627329
-0.948493
-0.222585
0.732874
1.627699
2.528582
3.451931
4.395117
5.352508
6.349118
6.421359
6.104682
5.923865
5.804383
5.737584
5.850750
5.999695
6.104682
6.421359
6.349118
5.346697
4.391802
3.452068
2.533799
1.640970
0.760775
-0.190200
-0.889564
-1.545353
-1.970244
-2.173447
-2.107949
-1.674456
-0.962409
-0.225250
0.731303
1.626327
2.526956
3.449933
4.392735
5.349747
6.349118
6.421359
6.104682
5.872835
5.746541
5.677550
5.779728
5.927145
6.104682
6.421359
6.349118
5.337082
4.382821
3.443681
2.525942
1.633298
0.752011
-0.200572
-0.914865
-1.615736
-2.075292
-2.274792
-2.172807
-1.707035
-0.969065
-0.226979
0.729597
1.622013
2.520556
3.441888
4.383394
5.339305
6.349118
6.421359
6.104682
5.846237
5.714964
5.643258
5.737728
5.883411
6.104682
6.421359
6.349118
5.331567
4.377403
3.438245
2.520300
1.626973
0.743640
-0.210212
-0.935903
-1.664568
-2.143995
-2.335862
-2.204706
-1.719934
-0.967824
-0.223622
0.732962
1.623238
2.520324
3.440568
4.381229
5.336448
6.349118
6.421359
6.104682
5.837202
5.703204
5.629376
5.719705
5.863999
6.104682
6.421359
6.349118
5.332537
4.378700
3.439889
2.522286
1.629251
0.746076
-0.208568
-0.940734
-1.685742
-2.178262
-2.366658
-2.213216
-1.719245
-0.964030
-0.223621
0.732038
1.619177
2.514236
3.433098
4.372739
5.327351
4.950256
3.950256
2.950256
1.950256
0.950256
-0.049744
-0.017237
0.982763
1.982763
2.982763
3.982763
4.982763
5.686215
4.773800
3.879791
3.006030
2.150918
1.316739
0.531177
-0.122136
-0.551108
-0.895058
-1.104004
-1.024023
-0.756657
-0.258766
0.429493
1.238345
2.091460
2.961889
3.847479
4.750366
5.670421
5.935330
5.503098
5.164590
4.937283
4.806678
4.737566
4.857028
5.017320
5.249282
5.583888
5.988284
5.677797
4.762464
3.865878
2.988849
2.129819
1.291102
0.500769
-0.158383
-0.625549
-0.969684
-1.180991
-1.119984
-0.858104
-0.284128
0.415533
1.229270
2.085160
2.957198
3.843648
4.746950
5.667173
5.910954
5.471639
5.124509
4.887203
4.748980
4.677547
4.785018
4.944526
5.185163
5.529469
5.957562
5.667305
4.751681
3.854388
2.975897
2.114178
1.270705
0.471678
-0.208533
-0.769506
-1.099537
-1.281195
-1.205573
-0.928561
-0.295760
0.410202
1.225403
2.081147
2.952376
3.837803
4.740070
5.659338
5.899583
5.456490
5.104555
4.861306
4.717621
4.643258
4.742338
4.900529
5.145973
5.495918
5.935578
5.660034
4.743795
3.845512
2.965404
2.101129
1.253848
0.448520
-0.246700
-0.865985
-1.182949
-1.340641
-1.248920
-0.953675
-0.296910
0.412542
1.228051
2.083279
2.953696
3.838281
4.739778
5.658366
5.896853
5.452340
5.098489
4.852655
4.706038
4.629376
4.723954
4.880916
5.128142
5.480393
5.922297
5.660952
4.744693
3.846242
2.965707
2.100557
1.251686
0.443519
-0.258326
-0.914016
-1.225969
-1.370744
-1.262707
-0.955764
-0.289201
0.417961
1.231016
2.083732
2.951912
3.834687
4.734793
5.648697
4.951243
3.951243
2.951243
1.951243
0.951243
-0.048757
-0.016785
0.983215
1.983215
2.983215
3.983215
4.983215
5.959167
5.227011
4.365085
3.523733
2.714876
1.966071
1.321784
0.789058
0.417974
0.100163
-0.114657
-0.015428
0.230490
0.669856
1.214831
1.874252
2.636520
3.458388
4.311420
5.184204
5.598681
5.067699
4.596196
4.213666
3.954236
3.809185
3.737533
3.864074
4.038945
4.299544
4.675400
5.138003
5.637136
5.211047
4.346007
3.501831
2.690076
1.938633
1.291841
0.758017
0.348967
0.022553
-0.192127
-0.113847
0.136348
0.640627
1.195333
1.859980
2.625549
3.449800
4.304510
5.178503
5.583763
5.047164
4.568203
4.176215
3.905296
3.751635
3.677542
3.790922
3.965956
4.237707
4.624874
5.097311
5.624202
5.196666
4.329679
3.482862
2.667399
1.910950
1.256399
0.712014
0.215653
-0.109018
-0.289028
-0.205107
0.066075
0.626297
1.186649
1.853709
2.620212
3.444665
4.299106
5.172627
5.577211
5.037836
4.554987
4.157825
3.880238
3.720519
3.643258
3.747456
3.921711
4.199782
4.593588
5.071901
5.606392
5.185408
4.316615
3.467533
2.649101
1.888891
1.228864
0.677556
0.126501
-0.192567
-0.345748
-0.252939
0.035022
0.623718
1.186991
1.855171
2.621952
3.446244
4.300296
5.173311
5.576171
5.035870
4.551607
4.152437
3.872039
3.709136
3.629376
3.728661
3.901902
4.182429
4.578997
5.059853
5.596547
5.185064
4.315633
3.465604
2.645814
1.883686
1.220647
0.664011
0.081948
-0.236330
-0.374354
-0.270195
0.031980
0.631525
1.193175
1.859740
2.624816
3.447351
4.299724
5.171147
5.921481
4.952174
3.952174
2.952174
1.952174
0.952174
-0.047826
-0.016858
0.983142
1.983142
2.983142
3.983142
4.983142
5.979073
5.732503
4.909621
4.117362
3.381070
2.727736
2.173372
1.700706
1.347557
1.082640
0.885414
0.974013
1.182037
1.567745
2.057154
2.625113
3.290466
4.037631
4.840195
5.406100
4.784624
4.220822
3.712780
3.280316
2.976379
2.812009
2.737484
2.872107
3.066425
3.366547
3.788824
4.285664
4.839199
5.441241
4.885471
4.092089
3.353203
2.696838
2.138095
1.656558
1.278482
1.005390
0.807919
0.876860
1.089603
1.517089
2.025269
2.603134
3.273875
4.024489
4.829535
5.397239
4.773391
4.204771
3.689269
3.246392
2.928826
2.754614
2.677535
2.797627
2.993270
3.308107
3.743614
4.250932
4.812011
5.431339
4.864907
4.066626
3.322823
2.658894
2.087149
1.581385
1.149395
0.876079
0.710986
0.785570
1.016206
1.481870
2.005989
2.591164
3.265154
4.017310
4.823066
5.393514
4.768667
4.197780
3.678502
3.230053
2.904797
2.723768
2.643258
2.753250
2.948776
3.272110
3.715457
4.229082
4.794790
5.416530
4.847654
4.046590
3.299243
2.630183
2.050035
1.529231
1.064092
0.794273