# vtk DataFile Version 3.0
vtk output
ASCII

DATASET UNSTRUCTURED_GRID
POINTS 13041 double
0 0 0 
1 0 0 
2 0 0 
3 0 0 
4 0 0 
5 0 0 
6 0 0 
7 0 0 
8 0 0 
9 0 0 
10 0 0 
11 0 0 
12 0 0 
13 0 0 
14 0 0 
15 0 0 
16 0 0 
17 0 0 
18 0 0 
19 0 0 
20 0 0 
21 0 0 
22 0 0 
23 0 0 
24 0 0 
25 0 0 
26 0 0 
27 0 0 
28 0 0 
29 0 0 
30 0 0 
31 0 0 
32 0 0 
33 0 0 
34 0 0 
35 0 0 
36 0 0 
37 0 0 
38 0 0 
39 0 0 
40 0 0 
41 0 0 
42 0 0 
43 0 0 
44 0 0 
45 0 0 
46 0 0 
47 0 0 
48 0 0 
49 0 0 
50 0 0 
51 0 0 
52 0 0 
53 0 0 
54 0 0 
55 0 0 
56 0 0 
57 0 0 
58 0 0 
59 0 0 
60 0 0 
61 0 0 
62 0 0 
63 0 0 
64 0 0 
65 0 0 
66 0 0 
67 0 0 
68 0 0 
69 0 0 
70 0 0 
71 0 0 
72 0 0 
73 0 0 
74 0 0 
75 0 0 
76 0 0 
77 0 0 
78 0 0 
79 0 0 
80 0 0 
81 0 0 
82 0 0 
83 0 0 
84 0 0 
85 0 0 
86 0 0 
87 0 0 
88 0 0 
89 0 0 
90 0 0 
91 0 0 
92 0 0 
93 0 0 
94 0 0 
95 0 0 
96 0 0 
97 0 0 
98 0 0 
99 0 0 
100 0 0 
101 0 0 
102 0 0 
103 0 0 
104 0 0 
105 0 0 
106 0 0 
107 0 0 
108 0 0 
109 0 0 
110 0 0 
111 0 0 
112 0 0 
113 0 0 
114 0 0 
115 0 0 
116 0 0 
117 0 0 
118 0 0 
119 0 0 
120 0 0 
121 0 0 
122 0 0 
123 0 0 
124 0 0 
125 0 0 
126 0 0 
127 0 0 
128 0 0 
129 0 0 
130 0 0 
131 0 0 
132 0 0 
133 0 0 
134 0 0 
135 0 0 
136 0 0 
137 0 0 
138 0 0 
139 0 0 
140 0 0 
141 0 0 
142 0 0 
143 0 0 
144 0 0 
145 0 0 
146 0 0 
147 0 0 
148 0 0 
149 0 0 
150 0 0 
151 0 0 
152 0 0 
153 0 0 
154 0 0 
155 0 0 
156 0 0 
157 0 0 
158 0 0 
159 0 0 
160 0 0 
0 1 0 
1 1 0 
2 1 0 
3 1 0 
4 1 0 
5 1 0 
6 1 0 
7 1 0 
8 1 0 
9 1 0 
10 1 0 
11 1 0 
12 1 0 
13 1 0 
14 1 0 
15 1 0 
16 1 0 
17 1 0 
18 1 0 
19 1 0 
20 1 0 
21 1 0 
22 1 0 
23 1 0 
24 1 0 
25 1 0 
26 1 0 
27 1 0 
28 1 0 
29 1 0 
30 1 0 
31 1 0 
32 1 0 
33 1 0 
34 1 0 
35 1 0 
36 1 0 
37 1 0 
38 1 0 
39 1 0 
40 1 0 
41 1 0 
42 1 0 
43 1 0 
44 1 0 
45 1 0 
46 1 0 
47 1 0 
48 1 0 
49 1 0 
50 1 0 
51 1 0 
52 1 0 
53 1 0 
54 1 0 
55 1 0 
56 1 0 
57 1 0 
58 1 0 
59 1 0 
60 1 0 
61 1 0 
62 1 0 
63 1 0 
64 1 0 
65 1 0 
66 1 0 
67 1 0 
68 1 0 
69 1 0 
70 1 0 
71 1 0 
72 1 0 
73 1 0 
74 1 0 
75 1 0 
76 1 0 
77 1 0 
78 1 0 
79 1 0 
80 1 0 
81 1 0 
82 1 0 
83 1 0 
84 1 0 
85 1 0 
86 1 0 
87 1 0 
88 1 0 
89 1 0 
90 1 0 
91 1 0 
92 1 0 
93 1 0 
94 1 0 
95 1 0 
96 1 0 
97 1 0 
98 1 0 
99 1 0 
100 1 0 
101 1 0 
102 1 0 
103 1 0 
104 1 0 
105 1 0 
106 1 0 
107 1 0 
108 1 0 
109 1 0 
110 1 0 
111 1 0 
112 1 0 
113 1 0 
114 1 0 
115 1 0 
116 1 0 
117 1 0 
118 1 0 
119 1 0 
120 1 0 
121 1 0 
122 1 0 
123 1 0 
124 1 0 
125 1 0 
126 1 0 
127 1 0 
128 1 0 
129 1 0 
130 1 0 
131 1 0 
132 1 0 
133 1 0 
134 1 0 
135 1 0 
136 1 0 
137 1 0 
138 1 0 
139 1 0 
140 1 0 
141 1 0 
142 1 0 
143 1 0 
144 1 0 
145 1 0 
146 1 0 
147 1 0 
148 1 0 
149 1 0 
150 1 0 
151 1 0 
152 1 0 
153 1 0 
154 1 0 
155 1 0 
156 1 0 
157 1 0 
158 1 0 
159 1 0 
160 1 0 
0 2 0 
1 2 0 
2 2 0 
3 2 0 
4 2 0 
5 2 0 
6 2 0 
7 2 0 
8 2 0 
9 2 0 
10 2 0 
11 2 0 
12 2 0 
13 2 0 
14 2 0 
15 2 0 
16 2 0 
17 2 0 
18 2 0 
19 2 0 
20 2 0 
21 2 0 
22 2 0 
23 2 0 
24 2 0 
25 2 0 
26 2 0 
27 2 0 
28 2 0 
29 2 0 
30 2 0 
31 2 0 
32 2 0 
33 2 0 
34 2 0 
35 2 0 
36 2 0 
37 2 0 
38 2 0 
39 2 0 
40 2 0 
41 2 0 
42 2 0 
43 2 0 
44 2 0 
45 2 0 
46 2 0 
47 2 0 
48 2 0 
49 2 0 
50 2 0 
51 2 0 
52 2 0 
53 2 0 
54 2 0 
55 2 0 
56 2 0 
57 2 0 
58 2 0 
59 2 0 
60 2 0 
61 2 0 
62 2 0 
63 2 0 
64 2 0 
65 2 0 
66 2 0 
67 2 0 
68 2 0 
69 2 0 
70 2 0 
71 2 0 
72 2 0 
73 2 0 
74 2 0 
75 2 0 
76 2 0 
77 2 0 
78 2 0 
79 2 0 
80 2 0 
81 2 0 
82 2 0 
83 2 0 
84 2 0 
85 2 0 
86 2 0 
87 2 0 
88 2 0 
89 2 0 
90 2 0 
91 2 0 
92 2 0 
93 2 0 
94 2 0 
95 2 0 
96 2 0 
97 2 0 
98 2 0 
99 2 0 
100 2 0 
101 2 0 
102 2 0 
103 2 0 
104 2 0 
105 2 0 
106 2 0 
107 2 0 
108 2 0 
109 2 0 
110 2 0 
111 2 0 
112 2 0 
113 2 0 
114 2 0 
115 2 0 
116 2 0 
117 2 0 
118 2 0 
119 2 0 
120 2 0 
121 2 0 
122 2 0 
123 2 0 
124 2 0 
125 2 0 
126 2 0 
127 2 0 
128 2 0 
129 2 0 
130 2 0 
131 2 0 
132 2 0 
133 2 0 
134 2 0 
135 2 0 
136 2 0 
137 2 0 
138 2 0 
139 2 0 
140 2 0 
141 2 0 
142 2 0 
143 2 0 
144 2 0 
145 2 0 
146 2 0 
147 2 0 
148 2 0 
149 2 0 
150 2 0 
151 2 0 
152 2 0 
153 2 0 
154 2 0 
155 2 0 
156 2 0 
157 2 0 
158 2 0 
159 2 0 
160 2 0 
0 3 0 
1 3 0 
2 3 0 
3 3 0 
4 3 0 
5 3 0 
6 3 0 
7 3 0 
8 3 0 
9 3 0 
10 3 0 
11 3 0 
12 3 0 
13 3 0 
14 3 0 
15 3 0 
16 3 0 
17 3 0 
18 3 0 
19 3 0 
20 3 0 
21 3 0 
22 3 0 
23 3 0 
24 3 0 
25 3 0 
26 3 0 
27 3 0 
28 3 0 
29 3 0 
30 3 0 
31 3 0 
32 3 0 
33 3 0 
34 3 0 
35 3 0 
36 3 0 
37 3 0 
38 3 0 
39 3 0 
40 3 0 
41 3 0 
42 3 0 
43 3 0 
44 3 0 
45 3 0 
46 3 0 
47 3 0 
48 3 0 
49 3 0 
50 3 0 
51 3 0 
52 3 0 
53 3 0 
54 3 0 
55 3 0 
56 3 0 
57 3 0 
58 3 0 
59 3 0 
60 3 0 
61 3 0 
62 3 0 
63 3 0 
64 3 0 
65 3 0 
66 3 0 
67 3 0 
68 3 0 
69 3 0 
70 3 0 
71 3 0 
72 3 0 
73 3 0 
74 3 0 
75 3 0 
76 3 0 
77 3 0 
78 3 0 
79 3 0 
80 3 0 
81 3 0 
82 3 0 
83 3 0 
84 3 0 
85 3 0 
86 3 0 
87 3 0 
88 3 0 
89 3 0 
90 3 0 
91 3 0 
92 3 0 
93 3 0 
94 3 0 
95 3 0 
96 3 0 
97 3 0 
98 3 0 
99 3 0 
100 3 0 
101 3 0 
102 3 0 
103 3 0 
104 3 0 
105 3 0 
106 3 0 
107 3 0 
108 3 0 
109 3 0 
110 3 0 
111 3 0 
112 3 0 
113 3 0 
114 3 0 
115 3 0 
116 3 0 
117 3 0 
118 3 0 
119 3 0 
120 3 0 
121 3 0 
122 3 0 
123 3 0 
124 3 0 
125 3 0 
126 3 0 
127 3 0 
128 3 0 
129 3 0 
130 3 0 
131 3 0 
132 3 0 
133 3 0 
134 3 0 
135 3 0 
136 3 0 
137 3 0 
138 3 0 
139 3 0 
140 3 0 
141 3 0 
142 3 0 
143 3 0 
144 3 0 
145 3 0 
146 3 0 
147 3 0 
148 3 0 
149 3 0 
150 3 0 
151 3 0 
152 3 0 
153 3 0 
154 3 0 
155 3 0 
156 3 0 
157 3 0 
158 3 0 
159 3 0 
160 3 0 
0 4 0 
1 4 0 
2 4 0 
3 4 0 
4 4 0 
5 4 0 
6 4 0 
7 4 0 
8 4 0 
9 4 0 
10 4 0 
11 4 0 
12 4 0 
13 4 0 
14 4 0 
15 4 0 
16 4 0 
17 4 0 
18 4 0 
19 4 0 
20 4 0 
21 4 0 
22 4 0 
23 4 0 
24 4 0 
25 4 0 
26 4 0 
27 4 0 
28 4 0 
29 4 0 
30 4 0 
31 4 0 
32 4 0 
33 4 0 
34 4 0 
35 4 0 
36 4 0 
37 4 0 
38 4 0 
39 4 0 
40 4 0 
41 4 0 
42 4 0 
43 4 0 
44 4 0 
45 4 0 
46 4 0 
47 4 0 
48 4 0 
49 4 0 
50 4 0 
51 4 0 
52 4 0 
53 4 0 
54 4 0 
55 4 0 
56 4 0 
57 4 0 
58 4 0 
59 4 0 
60 4 0 
61 4 0 
62 4 0 
63 4 0 
64 4 0 
65 4 0 
66 4 0 
67 4 0 
68 4 0 
69 4 0 
70 4 0 
71 4 0 
72 4 0 
73 4 0 
74 4 0 
75 4 0 
76 4 0 
77 4 0 
78 4 0 
79 4 0 
80 4 0 
81 4 0 
82 4 0 
83 4 0 
84 4 0 
85 4 0 
86 4 0 
87 4 0 
88 4 0 
89 4 0 
90 4 0 
91 4 0 
92 4 0 
93 4 0 
94 4 0 
95 4 0 
96 4 0 
97 4 0 
98 4 0 
99 4 0 
100 4 0 
101 4 0 
102 4 0 
103 4 0 
104 4 0 
105 4 0 
106 4 0 
107 4 0 
108 4 0 
109 4 0 
110 4 0 
111 4 0 
112 4 0 
113 4 0 
114 4 0 
115 4 0 
116 4 0 
117 4 0 
118 4 0 
119 4 0 
120 4 0 
121 4 0 
122 4 0 
123 4 0 
124 4 0 
125 4 0 
126 4 0 
127 4 0 
128 4 0 
129 4 0 
130 4 0 
131 4 0 
132 4 0 
133 4 0 
134 4 0 
135 4 0 
136 4 0 
137 4 0 
138 4 0 
139 4 0 
140 4 0 
141 4 0 
142 4 0 
143 4 0 
144 4 0 
145 4 0 
146 4 0 
147 4 0 
148 4 0 
149 4 0 
150 4 0 
151 4 0 
152 4 0 
153 4 0 
154 4 0 
155 4 0 
156 4 0 
157 4 0 
158 4 0 
159 4 0 
160 4 0 
0 5 0 
1 5 0 
2 5 0 
3 5 0 
4 5 0 
5 5 0 
6 5 0 
7 5 0 
8 5 0 
9 5 0 
10 5 0 
11 5 0 
12 5 0 
13 5 0 
14 5 0 
15 5 0 
16 5 0 
17 5 0 
18 5 0 
19 5 0 
20 5 0 
21 5 0 
22 5 0 
23 5 0 
24 5 0 
25 5 0 
26 5 0 
27 5 0 
28 5 0 
29 5 0 
30 5 0 
31 5 0 
32 5 0 
33 5 0 
34 5 0 
35 5 0 
36 5 0 
37 5 0 
38 5 0 
39 5 0 
40 5 0 
41 5 0 
42 5 0 
43 5 0 
44 5 0 
45 5 0 
46 5 0 
47 5 0 
48 5 0 
49 5 0 
50 5 0 
51 5 0 
52 5 0 
53 5 0 
54 5 0 
55 5 0 
56 5 0 
57 5 0 
58 5 0 
59 5 0 
60 5 0 
61 5 0 
62 5 0 
63 5 0 
64 5 0 
65 5 0 
66 5 0 
67 5 0 
68 5 0 
69 5 0 
70 5 0 
71 5 0 
72 5 0 
73 5 0 
74 5 0 
75 5 0 
76 5 0 
77 5 0 
78 5 0 
79 5 0 
80 5 0 
81 5 0 
82 5 0 
83 5 0 
84 5 0 
85 5 0 
86 5 0 
87 5 0 
88 5 0 
89 5 0 
90 5 0 
91 5 0 
92 5 0 
93 5 0 
94 5 0 
95 5 0 
96 5 0 
97 5 0 
98 5 0 
99 5 0 
100 5 0 
101 5 0 
102 5 0 
103 5 0 
104 5 0 
105 5 0 
106 5 0 
107 5 0 
108 5 0 
109 5 0 
110 5 0 
111 5 0 
112 5 0 
113 5 0 
114 5 0 
115 5 0 
116 5 0 
117 5 0 
118 5 0 
119 5 0 
120 5 0 
121 5 0 
122 5 0 
123 5 0 
124 5 0 
125 5 0 
126 5 0 
127 5 0 
128 5 0 
129 5 0 
130 5 0 
131 5 0 
132 5 0 
133 5 0 
134 5 0 
135 5 0 
136 5 0 
137 5 0 
138 5 0 
139 5 0 
140 5 0 
141 5 0 
142 5 0 
143 5 0 
144 5 0 
145 5 0 
146 5 0 
147 5 0 
148 5 0 
149 5 0 
150 5 0 
151 5 0 
152 5 0 
153 5 0 
154 5 0 
155 5 0 
156 5 0 
157 5 0 
158 5 0 
159 5 0 
160 5 0 
0 6 0 
1 6 0 
2 6 0 
3 6 0 
4 6 0 
5 6 0 
6 6 0 
7 6 0 
8 6 0 
9 6 0 
10 6 0 
11 6 0 
12 6 0 
13 6 0 
14 6 0 
15 6 0 
16 6 0 
17 6 0 
18 6 0 
19 6 0 
20 6 0 
21 6 0 
22 6 0 
23 6 0 
24 6 0 
25 6 0 
26 6 0 
27 6 0 
28 6 0 
29 6 0 
30 6 0 
31 6 0 
32 6 0 
33 6 0 
34 6 0 
35 6 0 
36 6 0 
37 6 0 
38 6 0 
39 6 0 
40 6 0 
41 6 0 
42 6 0 
43 6 0 
44 6 0 
45 6 0 
46 6 0 
47 6 0 
48 6 0 
49 6 0 
50 6 0 
51 6 0 
52 6 0 
53 6 0 
54 6 0 
55 6 0 
56 6 0 
57 6 0 
58 6 0 
59 6 0 
60 6 0 
61 6 0 
62 6 0 
63 6 0 
64 6 0 
65 6 0 
66 6 0 
67 6 0 
68 6 0 
69 6 0 
70 6 0 
71 6 0 
72 6 0 
73 6 0 
74 6 0 
75 6 0 
76 6 0 
77 6 0 
78 6 0 
79 6 0 
80 6 0 
81 6 0 
82 6 0 
83 6 0 
84 6 0 
85 6 0 
86 6 0 
87 6 0 
88 6 0 
89 6 0 
90 6 0 
91 6 0 
92 6 0 
93 6 0 
94 6 0 
95 6 0 
96 6 0 
97 6 0 
98 6 0 
99 6 0 
100 6 0 
101 6 0 
102 6 0 
103 6 0 
104 6 0 
105 6 0 
106 6 0 
107 6 0 
108 6 0 
109 6 0 
110 6 0 
111 6 0 
112 6 0 
113 6 0 
114 6 0 
115 6 0 
116 6 0 
117 6 0 
118 6 0 
119 6 0 
120 6 0 
121 6 0 
122 6 0 
123 6 0 
124 6 0 
125 6 0 
126 6 0 
127 6 0 
128 6 0 
129 6 0 
130 6 0 
131 6 0 
132 6 0 
133 6 0 
134 6 0 
135 6 0 
136 6 0 
137 6 0 
138 6 0 
139 6 0 
140 6 0 
141 6 0 
142 6 0 
143 6 0 
144 6 0 
145 6 0 
146 6 0 
147 6 0 
148 6 0 
149 6 0 
150 6 0 
151 6 0 
152 6 0 
153 6 0 
154 6 0 
155 6 0 
156 6 0 
157 6 0 
158 6 0 
159 6 0 
160 6 0 
0 7 0 
1 7 0 
2 7 0 
3 7 0 
4 7 0 
5 7 0 
6 7 0 
7 7 0 
8 7 0 
9 7 0 
10 7 0 
11 7 0 
12 7 0 
13 7 0 
14 7 0 
15 7 0 
16 7 0 
17 7 0 
18 7 0 
19 7 0 
20 7 0 
21 7 0 
22 7 0 
23 7 0 
24 7 0 
25 7 0 
26 7 0 
27 7 0 
28 7 0 
29 7 0 
30 7 0 
31 7 0 
32 7 0 
33 7 0 
34 7 0 
35 7 0 
36 7 0 
37 7 0 
38 7 0 
39 7 0 
40 7 0 
41 7 0 
42 7 0 
43 7 0 
44 7 0 
45 7 0 
46 7 0 
47 7 0 
48 7 0 
49 7 0 
50 7 0 
51 7 0 
52 7 0 
53 7 0 
54 7 0 
55 7 0 
56 7 0 
57 7 0 
58 7 0 
59 7 0 
60 7 0 
61 7 0 
62 7 0 
63 7 0 
64 7 0 
65 7 0 
66 7 0 
67 7 0 
[...]
POINT_DATA 13041

VECTORS u double
0 0 0 
-0.300962 -0.186018 0 
-0.542908 -0.301857 0 
-0.768767 -0.408735 0 
-0.989765 -0.513389 0 
-1.20872 -0.622734 0 
-1.4265 -0.740289 0 
-1.64293 -0.868472 0 
-1.85711 -1.00876 0 
-2.06752 -1.16171 0 
-2.27217 -1.3268 0 
-2.46889 -1.50226 0 
-2.65567 -1.68501 0 
-2.83112 -1.8708 0 
-2.99488 -2.05465 0 
-3.14791 -2.23157 0 
-3.29249 -2.39734 0 
-3.43187 -2.5493 0 
-3.56975 -2.68679 0 
-3.70957 -2.81115 0 
-3.854 -2.92538 0 
-4.0046 -3.03343 0 
-4.16175 -3.13954 0 
-4.32487 -3.24755 0 
-4.49272 -3.3606 0 
-4.6638 -3.48087 0 
-4.83658 -3.60969 0 
-5.00976 -3.74765 0 
-5.18236 -3.89481 0 
-5.35378 -4.05093 0 
-5.52372 -4.21561 0 
-5.6922 -4.38844 0 
-5.85947 -4.56911 0 
-6.02589 -4.75751 0 
-6.19193 -4.9537 0 
-6.358 -5.15801 0 
-6.52444 -5.37094 0 
-6.69136 -5.5932 0 
-6.85858 -5.82555 0 
-7.02555 -6.06869 0 
-7.19128 -6.32305 0 
-7.35434 -6.58858 0 
-7.51299 -6.86445 0 
-7.66537 -7.14893 0 
-7.8098 -7.43923 0 
-7.94514 -7.7317 0 
-8.07117 -8.02216 0 
-8.18875 -8.30647 0 
-8.29978 -8.58122 0 
-8.40698 -8.84432 0 
-8.51339 -9.09533 0 
-8.62181 -9.33548 0 
-8.7344 -9.56731 0 
-8.85236 -9.79419 0 
-8.97595 -10.0196 0 
-9.10461 -10.2469 0 
-9.23727 -10.4786 0 
-9.37259 -10.7165 0 
-9.50924 -10.9618 0 
-9.64607 -11.215 0 
-9.78217 -11.4761 0 
-9.91696 -11.7448 0 
-10.0501 -12.0208 0 
-10.1816 -12.3037 0 
-10.3115 -12.5931 0 
-10.4402 -12.8889 0 
-10.5679 -13.1908 0 
-10.6952 -13.4993 0 
-10.8222 -13.8144 0 
-10.9491 -14.1368 0 
-11.076 -14.4671 0 
-11.2026 -14.8057 0 
-11.328 -15.1532 0 
-11.4515 -15.5098 0 
-11.5716 -15.8749 0 
-11.687 -16.2474 0 
-11.7962 -16.6256 0 
-11.8982 -17.0068 0 
-11.9926 -17.3878 0 
-12.0798 -17.7654 0 
-12.1609 -18.1369 0 
-12.2379 -18.5001 0 
-12.3129 -18.8545 0 
-12.3881 -19.2003 0 
-12.4652 -19.5392 0 
-12.5455 -19.8733 0 
-12.6292 -20.2051 0 
-12.7164 -20.5371 0 
-12.8062 -20.8711 0 
-12.8979 -21.2086 0 
-12.9905 -21.5507 0 
-13.0833 -21.8979 0 
-13.1755 -22.2502 0 
-13.2666 -22.6076 0 
-13.3564 -22.97 0 
-13.4447 -23.3369 0 
-13.5317 -23.7083 0 
-13.6175 -24.0839 0 
-13.7023 -24.4638 0 
-13.7865 -24.8479 0 
-13.8703 -25.2366 0 
-13.9539 -25.6302 0 
-14.0374 -26.0292 0 
-14.1206 -26.4342 0 
-14.2032 -26.8457 0 
-14.2845 -27.2639 0 
-14.3636 -27.6889 0 
-14.4394 -28.1203 0 
-14.5108 -28.5568 0 
-14.5767 -28.997 0 
-14.6365 -29.4385 0 
-14.69 -29.8791 0 
-14.7379 -30.3164 0 
-14.7811 -30.7485 0 
-14.8212 -31.1743 0 
-14.8595 -31.5934 0 
-14.8976 -32.0064 0 
-14.9366 -32.4143 0 
-14.9769 -32.8188 0 
-15.0189 -33.2213 0 
-15.0622 -33.6232 0 
-15.1065 -34.0258 0 
-15.1512 -34.4299 0 
-15.1957 -34.8359 0 
-15.2394 -35.2441 0 
-15.282 -35.6546 0 
-15.3232 -36.0673 0 
-15.3627 -36.4819 0 
-15.4006 -36.8982 0 
-15.4369 -37.3161 0 
-15.4717 -37.7354 0 
-15.5054 -38.1561 0 
-15.5381 -38.5783 0 
-15.5701 -39.0022 0 
-15.6016 -39.428 0 
-15.6328 -39.8563 0 
-15.6635 -40.2875 0 
-15.6935 -40.7222 0 
-15.7225 -41.1607 0 
-15.7496 -41.6033 0 
-15.7741 -42.0498 0 
-15.795 -42.4996 0 
-15.8115 -42.9515 0 
-15.823 -43.4041 0 
-15.8292 -43.8556 0 
-15.8303 -44.3043 0 
-15.8268 -44.7484 0 
-15.8197 -45.1867 0 
-15.8101 -45.6186 0 
-15.799 -46.0438 0 
-15.7874 -46.4625 0 
-15.7762 -46.8753 0 
-15.7659 -47.2829 0 
-15.757 -47.6864 0 
-15.7495 -48.0864 0 
-15.7437 -48.484 0 
-15.7394 -48.8798 0 
-15.7367 -49.2746 0 
-15.7353 -49.6693 0 
-15.7349 -50.0643 0 
-15.7349 -50.46 0 
0 0 0 
-0.215142 -0.114961 0 
-0.448343 -0.236492 0 
-0.671051 -0.343263 0 
-0.886582 -0.448848 0 
-1.09769 -0.558639 0 
-1.30585 -0.676579 0 
-1.51158 -0.805237 0 
-1.71469 -0.94628 0 
-1.91447 -1.10043 0 
-2.10984 -1.26729 0 
-2.29956 -1.44512 0 
-2.48243 -1.63076 0 
-2.65761 -1.81974 0 
-2.82489 -2.00675 0 
-2.98485 -2.18639 0 
-3.13889 -2.35411 0 
-3.28899 -2.50701 0 
-3.43745 -2.64442 0 
-3.58639 -2.76785 0 
-3.7375 -2.88058 0 
-3.89173 -2.98692 0 
-4.04938 -3.0914 0 
-4.21012 -3.19809 0 
-4.37324 -3.31022 0 
-4.53783 -3.43 0 
-4.70299 -3.55871 0 
-4.86792 -3.69684 0 
-5.03203 -3.84438 0 
-5.19496 -4.00097 0 
-5.35654 -4.16612 0 
-5.51679 -4.33938 0 
-5.67591 -4.5204 0 
-5.83414 -4.709 0 
-5.9918 -4.90527 0 
-6.1492 -5.10952 0 
-6.30656 -5.32233 0 
-6.46395 -5.54445 0 
-6.62129 -5.77673 0 
-6.77821 -6.01999 0 
-6.93408 -6.27477 0 
-7.08803 -6.54113 0 
-7.23895 -6.81835 0 
-7.38568 -7.10469 0 
-7.52714 -7.39729 0 
-7.66262 -7.6923 0 
-7.79194 -7.98526 0 
-7.91558 -8.2717 0 
-8.03471 -8.54792 0 
-8.15098 -8.81167 0 
-8.26625 -9.06249 0 
-8.38225 -9.30176 0 
-8.50031 -9.53227 0 
-8.62119 -9.75767 0 
-8.74505 -9.98173 0 
-8.87158 -10.2079 0 
-9.00013 -10.4388 0 
-9.12988 -10.6763 0 
-9.26001 -10.9216 0 
-9.38981 -11.175 0 
-9.51871 -11.4364 0 
-9.64633 -11.7057 0 
-9.77248 -11.9822 0 
-9.89713 -12.2656 0 
-10.0204 -12.5554 0 
-10.1424 -12.8515 0 
-10.2635 -13.1537 0 
-10.3838 -13.4622 0 
-10.5036 -13.7774 0 
-10.6231 -14.0999 0 
-10.7422 -14.4301 0 
-10.8607 -14.7689 0 
-10.9782 -15.1168 0 
-11.0941 -15.4739 0 
-11.2075 -15.8401 0 
-11.3176 -16.2141 0 
-11.4235 -16.5941 0 
-11.5245 -16.9773 0 
-11.6203 -17.3604 0 
-11.7112 -17.7399 0 
-11.7978 -18.1128 0 
-11.8812 -18.4769 0 
-11.9629 -18.8315 0 
-12.0442 -19.177 0 
-12.1261 -19.5152 0 
-12.2095 -19.8484 0 
-12.2945 -20.1794 0 
-12.381 -20.5105 0 
-12.4689 -20.844 0 
-12.5574 -21.1813 0 
-12.646 -21.5234 0 
-12.7343 -21.8707 0 
-12.8218 -22.2233 0 
-12.9082 -22.5811 0 
-12.9933 -22.9439 0 
-13.0771 -23.3113 0 
-13.1595 -23.6831 0 
-13.2408 -24.0591 0 
-13.3211 -24.4392 0 
-13.4006 -24.8235 0 
-13.4795 -25.2123 0 
-13.5579 -25.6059 0 
-13.6358 -26.005 0 
-13.7132 -26.4101 0 
-13.7898 -26.8218 0 
-13.8652 -27.2405 0 
-13.9388 -27.6662 0 
-14.0099 -28.0985 0 
-14.0778 -28.5364 0 
-14.1418 -28.9782 0 
-14.2015 -29.4215 0 
-14.2568 -29.8637 0 
-14.3079 -30.3025 0 
-14.3556 -30.7357 0 
-14.4006 -31.1621 0 
-14.4441 -31.5815 0 
-14.4867 -31.9944 0 
-14.5293 -32.4021 0 
-14.5723 -32.8061 0 
-14.6156 -33.2082 0 
-14.6593 -33.61 0 
-14.7031 -34.0124 0 
-14.7466 -34.4166 0 
-14.7895 -34.8228 0 
-14.8314 -35.2314 0 
-14.8721 -35.6423 0 
-14.9113 -36.0554 0 
-14.949 -36.4705 0 
-14.9852 -36.8874 0 
-15.0199 -37.3057 0 
-15.0531 -37.7254 0 
-15.0851 -38.1465 0 
-15.116 -38.5689 0 
-15.146 -38.993 0 
-15.1752 -39.419 0 
-15.2037 -39.8474 0 
-15.2314 -40.2788 0 
-15.2583 -40.7137 0 
-15.2839 -41.1526 0 
-15.3079 -41.5958 0 
-15.3297 -42.0431 0 
-15.3487 -42.494 0 
-15.3644 -42.9472 0 
-15.3763 -43.4013 0 
-15.3843 -43.8543 0 
-15.3885 -44.3043 0 
-15.3893 -44.7495 0 
-15.3873 -45.1887 0 
-15.3832 -45.6211 0 
-15.3777 -46.0466 0 
-15.3716 -46.4653 0 
-15.3653 -46.8779 0 
-15.3593 -47.2853 0 
-15.3539 -47.6884 0 
-15.3492 -48.0881 0 
-15.3455 -48.4852 0 
-15.3427 -48.8806 0 
-15.3407 -49.2751 0 
-15.3396 -49.6694 0 
-15.339 -50.0643 0 
-15.339 -50.46 0 
0 0 0 
-0.187371 -0.0818115 0 
-0.386386 -0.181292 0 
-0.590994 -0.284347 0 
-0.793582 -0.388603 0 
-0.99341 -0.49805 0 
-1.19086 -0.615815 0 
-1.38636 -0.744418 0 
-1.58003 -0.88562 0 
-1.7716 -1.04032 0 
-1.96048 -1.20833 0 
-2.14579 -1.38803 0 
-2.32653 -1.57628 0 
-2.50185 -1.76842 0 
-2.67131 -1.95873 0 
-2.83512 -2.1413 0 
-2.99418 -2.31107 0 
-3.15 -2.46485 0 
-3.3043 -2.60193 0 
-3.45864 -2.72411 0 
-3.61414 -2.8351 0 
-3.77131 -2.93968 0 
-3.93007 -3.0427 0 
-4.08997 -3.14844 0 
-4.25034 -3.26015 0 
-4.41048 -3.37998 0 
-4.5698 -3.50909 0 
-4.72785 -3.64785 0 
-4.88434 -3.79611 0 
-5.03916 -3.95344 0 
-5.19233 -4.11928 0 
-5.34399 -4.29311 0 
-5.49435 -4.47455 0 
-5.64369 -4.66341 0 
-5.79232 -4.85977 0 
-5.94056 -5.06394 0 
-6.08865 -5.27652 0 
-6.23679 -5.4983 0 
-6.38507 -5.73021 0 
-6.53338 -5.97317 0 
-6.68144 -6.22787 0 
-6.82874 -6.49453 0 
-6.97454 -6.77258 0 
-7.11793 -7.06039 0 
-7.25798 -7.35507 0 
-7.39393 -7.65261 0 
-7.52539 -7.94819 0 
-7.65254 -8.23692 0 
-7.77613 -8.5147 0 
-7.89737 -8.77904 0 
-8.01767 -9.02947 0 
-8.13827 -9.26761 0 
-8.26005 -9.49662 0 
-8.38338 -9.7205 0 
-8.50817 -9.94332 0 
-8.63397 -10.1687 0 
-8.76019 -10.3992 0 
-8.88621 -10.6368 0 
-9.01147 -10.8824 0 
-9.13553 -11.1364 0 
-9.25811 -11.3985 0 
-9.37903 -11.6685 0 
-9.49826 -11.9457 0 
-9.61587 -12.2297 0 
-9.732 -12.52 0 
-9.84683 -12.8165 0 
-9.96062 -13.1189 0 
-10.0736 -13.4276 0 
-10.186 -13.7428 0 
-10.298 -14.065 0 
-10.4098 -14.3951 0 
-10.5212 -14.7338 0 
-10.6322 -15.0816 0 
-10.7423 -15.439 0 
-10.8511 -15.8057 0 
-10.9579 -16.1808 0 
-11.0619 -16.5624 0 
-11.1625 -16.9476 0 
-11.2593 -17.3329 0 
-11.3522 -17.7144 0 
-11.4417 -18.0888 0 
-11.5287 -18.4537 0 
-11.6141 -18.8084 0 
-11.699 -19.1534 0 
-11.7841 -19.4907 0 
-11.8698 -19.823 0 
-11.9562 -20.1531 0 
-12.043 -20.4837 0 
-12.1299 -20.8169 0 
-12.2165 -21.1543 0 
-12.3023 -21.4966 0 
-12.3871 -21.8443 0 
-12.4706 -22.1975 0 
-12.5527 -22.5559 0 
-12.6332 -22.9193 0 
-12.7123 -23.2872 0 
-12.7901 -23.6595 0 
-12.8665 -24.0359 0 
-12.9418 -24.4163 0 
-13.0162 -24.8008 0 
-13.0899 -25.1896 0 
-13.163 -25.5833 0 
-13.2356 -25.9823 0 
-13.3077 -26.3873 0 
-13.3793 -26.799 0 
-13.4501 -27.2178 0 
-13.5198 -27.6439 0 
-13.5879 -28.077 0 
-13.6537 -28.516 0 
-13.7167 -28.9593 0 
-13.7765 -29.4043 0 
-13.8328 -29.8483 0 
-13.8858 -30.2886 0 
-13.936 -30.7229 0 
-13.9839 -31.1499 0 
-14.0305 -31.5693 0 
-14.0762 -31.982 0 
-14.1215 -32.3892 0 
-14.1667 -32.7928 0 
-14.2117 -33.1947 0 
-14.2563 -33.5962 0 
-14.3003 -33.9988 0 
-14.3435 -34.4032 0 
-14.3855 -34.8098 0 
-14.4262 -35.2189 0 
-14.4654 -35.6303 0 
-14.503 -36.044 0 
-14.539 -36.4597 0 
-14.5733 -36.8771 0 
-14.6061 -37.296 0 
-14.6374 -37.7162 0 
-14.6673 -38.1376 0 
-14.6961 -38.5604 0 
-14.7237 -38.9846 0 
-14.7505 -39.4108 0 
-14.7764 -39.8392 0 
-14.8016 -40.2707 0 
-14.8259 -40.7056 0 
-14.8492 -41.1448 0 
-14.8713 -41.5883 0 
-14.8917 -42.0363 0 
-14.9099 -42.4881 0 
-14.9256 -42.9426 0 
-14.9384 -43.3981 0 
-14.948 -43.8525 0 
-14.9545 -44.3039 0 
-14.9583 -44.7502 0 
-14.9598 -45.1902 0 
-14.9595 -45.623 0 
-14.9581 -46.0486 0 
-14.956 -46.4672 0 
-14.9537 -46.8797 0 
-14.9513 -47.2868 0 
-14.949 -47.6896 0 
-14.947 -48.089 0 
-14.9453 -48.4859 0 
-14.9439 -48.8811 0 
-14.943 -49.2752 0 
-14.9424 -49.6692 0 
-14.9423 -50.0638 0 
-14.9424 -50.4596 0 
0 0 0 
-0.167006 -0.0614892 0 
-0.343519 -0.142958 0 
-0.526295 -0.2356 0 
-0.711707 -0.335361 0 
-0.897242 -0.442318 0 
-1.0823 -0.558394 0 
-1.26695 -0.685631 0 
-1.45136 -0.82578 0 
-1.6355 -0.979969 0 
-1.81901 -1.14833 0 
-2.00108 -1.32961 0 
-2.18059 -1.52076 0 
-2.35637 -1.71692 0 
-2.52753 -1.91177 0 
-2.69383 -2.09846 0 
-2.85592 -2.27101 0 
-3.0151 -2.42568 0 
-3.17298 -2.56176 0 
-3.33096 -2.68158 0 
-3.48979 -2.78966 0 
-3.64954 -2.89157 0 
-3.80968 -2.9927 0 
-3.96942 -3.09753 0 
-4.12792 -3.20924 0 
-4.28451 -3.32977 0 
-4.43876 -3.46001 0 
-4.59049 -3.60011 0 
-4.73968 -3.74974 0 
-4.88647 -3.90834 0 
-5.03108 -4.07527 0 
-5.1738 -4.24997 0 
-5.31496 -4.43202 0 
-5.45491 -4.62122 0 
-5.59403 -4.81762 0 
-5.73271 -5.02154 0 
-5.87133 -5.23357 0 
-6.01026 -5.45453 0 
-6.1498 -5.68544 0 
-6.29016 -5.92733 0 
-6.43137 -6.18112 0 
-6.57324 -6.44731 0 
-6.71524 -6.72564 0 
-6.85654 -7.01476 0 
-6.99611 -7.31185 0 
-7.1329 -7.61269 0 
-7.26616 -7.91193 0 
-7.39574 -8.20392 0 
-7.52215 -8.48383 0 
-7.64648 -8.74874 0 
-7.77002 -8.99822 0 
-7.89386 -9.23432 0 
-8.01857 -9.46087 0 
-8.14417 -9.68251 0 
-8.2702 -9.90373 0 
-8.39595 -10.1283 0 
-8.52071 -10.3588 0 
-8.64387 -10.597 0 
-8.76503 -10.8436 0 
-8.88397 -11.0987 0 
-9.00061 -11.362 0 
-9.11501 -11.6331 0 
-9.22731 -11.9114 0 
-9.33769 -12.1963 0 
-9.44639 -12.4873 0 
-9.55365 -12.7842 0 
-9.65978 -13.0869 0 
-9.76506 -13.3956 0 
-9.86981 -13.7105 0 
-9.97432 -14.0323 0 
-10.0789 -14.3618 0 
-10.1836 -14.6997 0 
-10.2887 -15.0468 0 
-10.3941 -15.4038 0 
-10.4993 -15.7707 0 
-10.6037 -16.1467 0 
-10.7067 -16.53 0 
-10.8073 -16.9177 0 
-10.905 -17.3058 0 
-10.9993 -17.6901 0 
-11.0907 -18.0665 0 
-11.1798 -18.4323 0 
-11.2676 -18.7867 0 
-11.3549 -19.1306 0 
-11.4424 -19.4663 0 
-11.5301 -19.797 0 
-11.6179 -20.126 0 
-11.7053 -20.456 0 
-11.7918 -20.7891 0 
-11.877 -21.1268 0 
-11.9606 -21.4698 0 
-12.0424 -21.8184 0 
-12.1222 -22.1725 0 
-12.2001 -22.5318 0 
-12.2762 -22.896 0 
-12.3506 -23.2648 0 
-12.4233 -23.6377 0 
-12.4946 -24.0145 0 
-12.5647 -24.3953 0 
-12.6338 -24.7799 0 
-12.702 -25.1688 0 
-12.7697 -25.5622 0 
-12.837 -25.9609 0 
-12.9041 -26.3654 0 
-12.9712 -26.7766 0 
-13.0381 -27.195 0 
-13.1047 -27.6211 0 
-13.1706 -28.0547 0 
-13.2352 -28.4949 0 
-13.2979 -28.9399 0 
-13.358 -29.3871 0 
-13.4151 -29.8334 0 
-13.4694 -30.2756 0 
-13.5211 -30.7112 0 
-13.5709 -31.1387 0 
-13.6196 -31.5579 0 
-13.6676 -31.9698 0 
-13.7152 -32.3761 0 
-13.7624 -32.7789 0 
-13.8091 -33.1803 0 
-13.8549 -33.5817 0 
-13.8995 -33.9844 0 
-13.9427 -34.3892 0 
-13.9843 -34.7965 0 
-14.0241 -35.2063 0 
-14.062 -35.6186 0 
-14.0981 -36.0331 0 
-14.1324 -36.4495 0 
-14.1648 -36.8676 0 
-14.1955 -37.2872 0 
-14.2247 -37.7079 0 
-14.2523 -38.1298 0 
-14.2786 -38.5528 0 
-14.3038 -38.9772 0 
-14.328 -39.4034 0 
-14.3514 -39.8317 0 
-14.3741 -40.2629 0 
-14.3963 -40.6976 0 
-14.4178 -41.1365 0 
-14.4386 -41.5801 0 
-14.4584 -42.0285 0 
-14.4766 -42.4812 0 
-14.4928 -42.9371 0 
-14.5066 -43.3944 0 
-14.5177 -43.8507 0 
-14.5261 -44.3037 0 
-14.5321 -44.7513 0 
-14.5361 -45.1921 0 
-14.5388 -45.6252 0 
-14.5406 -46.0506 0 
-14.5418 -46.469 0 
-14.5426 -46.881 0 
-14.5433 -47.2878 0 
-14.5438 -47.6903 0 
-14.5442 -48.0894 0 
-14.5444 -48.4861 0 
-14.5445 -48.881 0 
-14.5446 -49.2749 0 
-14.5448 -49.6685 0 
-14.5451 -50.0626 0 
-14.5456 -50.4582 0 
0 0 0 
-0.150329 -0.0473653 0 
-0.307821 -0.115134 0 
-0.471229 -0.197325 0 
-0.638527 -0.29018 0 
-0.808113 -0.392542 0 
-0.979208 -0.505043 0 
-1.15178 -0.629174 0 
-1.3261 -0.76662 0 
-1.50235 -0.918821 0 
-1.68035 -1.08647 0 
-1.85935 -1.26889 0 
-2.03801 -1.4634 0 
-2.2147 -1.66493 0 
-2.38792 -1.86622 0 
-2.55694 -2.05889 0 
-2.72203 -2.23542 0 
-2.88443 -2.39105 0 
-3.04574 -2.52513 0 
-3.20724 -2.64092 0 
-3.36939 -2.74437 0 
-3.53178 -2.84228 0 
-3.6934 -2.94084 0 
-3.85306 -3.04473 0 
-4.00973 -3.15693 0 
-4.16275 -3.27895 0 
-4.31186 -3.41123 0 
-4.45713 -3.55355 0 
-4.59882 -3.70532 0 
-4.73732 -3.86584 0 
-4.87305 -4.03437 0 
-5.00646 -4.21031 0 
-5.13801 -4.3932 0 
-5.26813 -4.58282 0 
-5.39732 -4.7792 0 
-5.52605 -4.98264 0 
-5.65484 -5.19371 0 
-5.78427 -5.41325 0 
-5.91488 -5.64233 0 
-6.04719 -5.88216 0 
-6.1816 -6.13396 0 
-6.31822 -6.39868 0 
-6.45677 -6.67659 0 
-6.59646 -6.96685 0 
-6.73608 -7.26688 0 
-6.87423 -7.57224 0 
-7.0097 -7.87674 0 
-7.14194 -8.17351 0 
-7.27124 -8.45649 0 
-7.39861 -8.72199 0 
-7.52532 -8.96968 0 
-7.65235 -9.20237 0 
-7.78005 -9.42505 0 
-7.90804 -9.64335 0 
-8.03549 -9.86241 0 
-8.16137 -10.0861 0 
-8.28481 -10.3171 0 
-8.40522 -10.5564 0 
-8.52233 -10.8047 0 
-8.63614 -11.0617 0 
-8.74679 -11.327 0 
-8.85456 -11.5998 0 
-8.95974 -11.8795 0 
-9.06266 -12.1656 0 
-9.16364 -12.4575 0 
-9.26303 -12.755 0 
-9.36116 -13.058 0 
-9.45842 -13.3665 0 
-9.55521 -13.6809 0 
-9.65197 -14.0018 0 
-9.74914 -14.33 0 
-9.84717 -14.6664 0 
-9.9464 -15.0121 0 
-10.047 -15.3678 0 
-10.1488 -15.7341 0 
-10.2514 -16.1107 0 
-10.3538 -16.4961 0 
-10.4549 -16.8871 0 
-10.5538 -17.2793 0 
-10.6498 -17.6675 0 
-10.743 -18.0467 0 
-10.8342 -18.4137 0 
-10.9242 -18.7674 0 
-11.0139 -19.1092 0 
-11.1037 -19.4423 0 
-11.1934 -19.7705 0 
-11.2827 -20.0978 0 
-11.3708 -20.427 0 
-11.457 -20.7602 0 
-11.5409 -21.0986 0 
-11.6223 -21.4428 0 
-11.701 -21.7927 0 
-11.7772 -22.1482 0 
-11.8509 -22.5089 0 
-11.9224 -22.8743 0 
-11.9918 -23.244 0 
-12.0594 -23.6178 0 
-12.1254 -23.9953 0 
-12.19 -24.3764 0 
-12.2535 -24.7612 0 
-12.3161 -25.1499 0 
-12.3782 -25.5429 0 
-12.4401 -25.9408 0 
-12.5022 -26.3443 0 
-12.5647 -26.7544 0 
-12.6278 -27.1718 0 
-12.6916 -27.5973 0 
-12.7557 -28.031 0 
-12.8194 -28.4723 0 
-12.8821 -28.9195 0 
-12.9429 -29.3697 0 
-13.0011 -29.8192 0 
-13.0567 -30.2641 0 
-13.1099 -30.7014 0 
-13.1615 -31.1292 0 
-13.2121 -31.5476 0 
-13.2622 -31.958 0 
-13.312 -32.3628 0 
-13.3613 -32.7643 0 
-13.4097 -33.1648 0 
-13.4568 -33.566 0 
-13.5021 -33.969 0 
-13.5455 -34.3745 0 
-13.5866 -34.7827 0 
-13.6256 -35.1935 0 
-13.6623 -35.6069 0 
-13.6969 -36.0225 0 
-13.7293 -36.4399 0 
-13.7598 -36.859 0 
-13.7884 -37.2793 0 
-13.8152 -37.7007 0 
-13.8404 -38.1231 0 
-13.8641 -38.5465 0 
-13.8866 -38.971 0 
-13.9081 -39.3969 0 
-13.9289 -39.8248 0 
-13.9492 -40.2554 0 
-13.9692 -40.6893 0 
-13.9891 -41.1275 0 
-14.0089 -41.5707 0 
-14.0282 -42.0193 0 
-14.0467 -42.473 0 
-14.0638 -42.9306 0 
-14.0787 -43.3901 0 
-14.0913 -43.849 0 
-14.1014 -44.3043 0 
-14.1094 -44.7535 0 
-14.1157 -45.1951 0 
-14.1208 -45.6283 0 
-14.1253 -46.0533 0 
-14.1293 -46.4709 0 
-14.1331 -46.8822 0 
-14.1366 -47.2884 0 
-14.1396 -47.6904 0 
-14.1422 -48.0893 0 
-14.1442 -48.4858 0 
-14.1457 -48.8806 0 
-14.1468 -49.2742 0 
-14.1476 -49.6673 0 
-14.1483 -50.0608 0 
-14.1491 -50.4556 0 
0 0 0 
-0.135307 -0.0372393 0 
-0.275955 -0.0945951 0 
-0.421531 -0.167576 0 
-0.571171 -0.252989 0 
-0.724067 -0.349328 0 
-0.879879 -0.456586 0 
-1.03879 -0.575807 0 
-1.20136 -0.708661 0 
-1.36813 -0.857024 0 
-1.53928 -1.02243 0 
-1.71427 -1.20518 0 
-1.89174 -1.40331 0 
-2.0697 -1.61162 0 
-2.24622 -1.82159 0 
-2.41988 -2.0226 0 
-2.59042 -2.2046 0 
-2.75857 -2.36136 0 
-2.92545 -2.49222 0 
-3.09202 -2.602 0 
-3.2583 -2.69877 0 
-3.42357 -2.79123 0 
-3.58642 -2.88661 0 
-3.7454 -2.98975 0 
-3.8994 -3.10317 0 
-4.04793 -3.22765 0 
-4.19101 -3.36299 0 
-4.32903 -3.50847 0 
-4.46255 -3.66322 0 
-4.59218 -3.82632 0 
-4.71855 -3.99698 0 
-4.84222 -4.17453 0 
-4.96375 -4.3585 0 
-5.08367 -4.54865 0 
-5.20251 -4.74496 0 
-5.32085 -4.9477 0 
-5.43933 -5.15739 0 
-5.55867 -5.37487 0 
-5.67966 -5.60126 0 
-5.80315 -5.83794 0 
-5.9299 -6.08648 0 
-6.06044 -6.34844 0 
-6.19485 -6.62492 0 
-6.33251 -6.91589 0 
-6.47218 -7.21932 0 
-6.61218 -7.53052 0 
-6.751 -7.84222 0 
-6.88759 -8.14569 0 
-7.02185 -8.43291 0 
-7.15438 -8.69907 0 
-7.28606 -8.94394 0 
-7.41761 -9.1716 0 
-7.549 -9.38875 0 
-7.67964 -9.60251 0 
-7.80836 -9.81889 0 
-7.93396 -10.0419 0 
-8.0555 -10.2738 0 
-8.17251 -10.5152 0 
-8.28496 -10.766 0 
-8.39308 -11.0257 0 
-8.49728 -11.2935 0 
-8.59802 -11.5686 0 
-8.69576 -11.8502 0 
-8.79092 -12.1379 0 
-8.88391 -12.4309 0 
-8.97514 -12.7292 0 
-9.065 -13.0324 0 
-9.15392 -13.3407 0 
-9.24239 -13.6543 0 
-9.33096 -13.9739 0 
-9.42026 -14.3002 0 
-9.51093 -14.6343 0 
-9.60365 -14.9774 0 
-9.69889 -15.3309 0 
-9.79682 -15.6958 0 
-9.89709 -16.0725 0 
-9.99882 -16.46 0 
-10.1007 -16.8552 0 
-10.2016 -17.2529 0 
-10.3004 -17.6465 0 
-10.397 -18.0297 0 
-10.4917 -18.398 0 
-10.5853 -18.7504 0 
-10.6783 -19.089 0 
-10.7709 -19.4183 0 
-10.863 -19.7431 0 
-10.9537 -20.0681 0 
-11.0421 -20.3965 0 
-11.1277 -20.73 0 
-11.2099 -21.0697 0 
-11.2886 -21.4155 0 
-11.3639 -21.7674 0 
-11.4361 -22.1247 0 
-11.5054 -22.4872 0 
-11.5721 -22.8542 0 
-11.6364 -23.2253 0 
-11.6986 -23.6001 0 
-11.7591 -23.9784 0 
-11.818 -24.36 0 
-11.8757 -24.7449 0 
-11.9325 -25.1333 0 
-11.9888 -25.5256 0 
-12.045 -25.9223 0 
-12.1016 -26.3243 0 
-12.1591 -26.7324 0 
-12.2181 -27.148 0 
-12.2786 -27.5721 0 
-12.3405 -28.0054 0 
-12.4034 -28.4478 0 
-12.4662 -28.8976 0 
-12.5281 -29.3518 0 
-12.5881 -29.8056 0 
-12.6459 -30.2543 0 
-12.7016 -30.6936 0 
-12.7557 -31.1217 0 
-12.8089 -31.5387 0 
-12.8616 -31.9468 0 
-12.9138 -32.3491 0 
-12.9652 -32.7487 0 
-13.0153 -33.1481 0 
-13.0635 -33.5491 0 
-13.1093 -33.9526 0 
-13.1526 -34.359 0 
-13.1932 -34.7684 0 
-13.2312 -35.1806 0 
-13.2665 -35.5954 0 
-13.2994 -36.0123 0 
-13.33 -36.4311 0 
-13.3584 -36.8512 0 
-13.3847 -37.2726 0 
-13.4091 -37.6948 0 
-13.4317 -38.1178 0 
-13.4528 -38.5415 0 
-13.4725 -38.966 0 
-13.4912 -39.3916 0 
-13.5091 -39.8188 0 
-13.5267 -40.2482 0 
-13.5444 -40.6809 0 
-13.5624 -41.1177 0 
-13.5809 -41.56 0 
-13.5997 -42.0083 0 
-13.6184 -42.4629 0 
-13.6362 -42.9226 0 
-13.6525 -43.3852 0 
-13.6667 -43.8474 0 
-13.6789 -44.3057 0 
-13.689 -44.757 0 
-13.6977 -45.1995 0 
-13.7054 -45.6325 0 
-13.7126 -46.0567 0 
-13.7195 -46.4731 0 
-13.7261 -46.8834 0 
-13.7322 -47.2887 0 
-13.7376 -47.6903 0 
-13.7421 -48.0889 0 